<UPF version="2.0.1">
  <PP_INFO>
    Generated using "atomic" code by A. Dal Corso  v.7.0
    Author: ADC
    Generation date: 19Feb2023
    Pseudopotential type: PAW
    Element: Ac
    Functional:  SLA  PW   PBX  PBC
    Suggested minimum cutoff for wavefunctions:  48. Ry
    Suggested minimum cutoff for charge density: 328. Ry
    The Pseudo was generated with a Scalar-Relativistic Calculation
    Local Potential by smoothing AE potential with Bessel fncs, cutoff radius:   2.2000
    Valence configuration: 
    nl pn  l   occ       Rcut    Rcut US       E pseu
    6S  1  0  2.00      1.400      1.700    -2.983104
    7S  2  0  2.00      1.400      1.700    -0.289931
    6P  2  1  6.00      1.600      2.200    -1.478840
    7P  3  1  0.00      1.600      2.200    -0.087044
    6D  3  2  1.00      1.600      2.200    -0.165509
    Generation configuration:
    6S  1  0  2.00      1.400      1.700    -2.983154
    7S  2  0  2.00      1.400      1.700    -0.289938
    6P  2  1  6.00      1.600      2.200    -1.478871
    7P  3  1  0.00      1.600      2.200    -0.087046
    6D  3  2  1.00      1.600      2.200    -0.165523
    6D  3  2 -2.00      1.600      2.200     4.800000
    5F  4  3  0.00      1.300      1.800     0.100000
    5F  4  3 -2.00      1.300      1.800    -0.700000
    Pseudization used: troullier-martins
    <PP_INPUTFILE>
@input
title='Ac',
zed=89.0,
rel=1,
config='[Rn] 6d1.0 7s2.0 7p0. 5f0',
iswitch=3,
dft='PBE'
/
@inputp
lpaw=.true.,
pseudotype=3,
file_pseudopw='Ac.pbe-spfn-kjpaw_psl.1.0.0.UPF',
author='ADC',
lloc=-1,
rcloc=2.2,
which_augfun='PSQ',
rmatch_augfun_nc=.true.,
nlcc=.true.,
new_core_ps=.true.,
rcore=1.5,
tm=.true.
/
8
6S  1  0  2.00  0.00  1.40  1.70  0.0
7S  2  0  2.00  0.00  1.40  1.70  0.0
6P  2  1  6.00  0.00  1.60  2.20  0.0
7P  3  1  0.00  0.00  1.60  2.20  0.0
6D  3  2  1.00  0.00  1.60  2.20  0.0
6D  3  2 -2.00  4.80  1.60  2.20  0.0
5F  4  3  0.00  0.10  1.30  1.80  0.0
5F  4  3 -2.00 -0.70  1.30  1.80  0.0
    </PP_INPUTFILE>
  </PP_INFO>
    <!-- END OF HUMAN READABLE SECTION -->
  <PP_HEADER generated="Generated using 'atomic' code by A. Dal Corso  v.7.0" author="ADC" date="19Feb2023" comment="" element="Ac" pseudo_type="PAW" relativistic="scalar" is_ultrasoft="true" is_paw="true" is_coulomb="false" has_so="false" has_wfc="true" has_gipaw="false" paw_as_gipaw="false" core_correction="true" functional=" SLA  PW   PBX  PBC" z_valence="11.0000000000000" total_psenergy="-937.452355554464" wfc_cutoff="48.4106923035429" rho_cutoff="328.135829285390" l_max="3" l_max_rho="6" l_local="-1" mesh_size="1289" number_of_wfc="5" number_of_proj="8"/>
  <PP_MESH mesh="1289" dx="1.250000000000000E-002" xmin="-7.00000000000000" rmax="100.000000000000" zmesh="89.0000000000000">
    <PP_R>
   1.024586478151142E-05   1.037474189515755E-05   1.050524008333238E-05
   1.063737973664330E-05   1.077118150218000E-05   1.090666628674055E-05
   1.104385526009819E-05   1.118276985830911E-05   1.132343178706192E-05
   1.146586302506915E-05   1.161008582750154E-05   1.175612272946538E-05
   1.190399654952371E-05   1.205373039326176E-05   1.220534765689728E-05
   1.235887203093616E-05   1.251432750387419E-05   1.267173836594531E-05
   1.283112921291694E-05   1.299252494993323E-05   1.315595079540645E-05
   1.332143228495745E-05   1.348899527540563E-05   1.365866594880915E-05
   1.383047081655597E-05   1.400443672350617E-05   1.418059085218668E-05
   1.435896072703848E-05   1.453957421871739E-05   1.472245954844899E-05
   1.490764529243811E-05   1.509516038633401E-05   1.528503412975162E-05
   1.547729619084963E-05   1.567197661096628E-05   1.586910580931328E-05
   1.606871458772893E-05   1.627083413549096E-05   1.647549603418992E-05
   1.668273226266390E-05   1.689257520199520E-05   1.710505764057002E-05
   1.732021277920169E-05   1.753807423631834E-05   1.775867605321592E-05
   1.798205269937713E-05   1.820823907785738E-05   1.843727053073849E-05
   1.866918284465094E-05   1.890401225636563E-05   1.914179545845589E-05
   1.938256960503081E-05   1.962637231754067E-05   1.987324169065529E-05
   2.012321629821651E-05   2.037633519926534E-05   2.063263794414502E-05
   2.089216458068091E-05   2.115495566043795E-05   2.142105224505704E-05
   2.169049591267089E-05   2.196332876440075E-05   2.223959343093480E-05
   2.251933307918920E-05   2.280259141905319E-05   2.308941271021864E-05
   2.337984176909583E-05   2.367392397581611E-05   2.397170528132256E-05
   2.427323221455005E-05   2.457855188969534E-05   2.488771201357884E-05
   2.520076089309891E-05   2.551774744277985E-05   2.583872119241501E-05
   2.616373229480577E-05   2.649283153359812E-05   2.682607033121768E-05
   2.716350075690453E-05   2.750517553484925E-05   2.785114805243099E-05
   2.820147236855953E-05   2.855620322212200E-05   2.891539604053595E-05
   2.927910694841009E-05   2.964739277631372E-05   3.002031106965675E-05
   3.039792009768120E-05   3.078027886256594E-05   3.116744710864594E-05
   3.155948533174733E-05   3.195645478864009E-05   3.235841750660947E-05
   3.276543629314795E-05   3.317757474576906E-05   3.359489726194450E-05
   3.401746904916647E-05   3.444535613513644E-05   3.487862537808212E-05
   3.531734447720428E-05   3.576158198325468E-05   3.621140730924749E-05
   3.666689074130504E-05   3.712810344964025E-05   3.759511749967721E-05
   3.806800586331136E-05   3.854684243031163E-05   3.903170201986577E-05
   3.952266039227111E-05   4.001979426077224E-05   4.052318130354753E-05
   4.103290017584656E-05   4.154903052228014E-05   4.207165298926495E-05
   4.260084923762481E-05   4.313670195535015E-05   4.367929487051832E-05
   4.422871276437622E-05   4.478504148458753E-05   4.534836795864672E-05
   4.591878020746143E-05   4.649636735910603E-05   4.708121966274809E-05
   4.767342850274989E-05   4.827308641294764E-05   4.888028709110976E-05
   4.949512541357759E-05   5.011769745008990E-05   5.074810047879401E-05
   5.138643300144577E-05   5.203279475880051E-05   5.268728674619788E-05
   5.335001122934244E-05   5.402107176028298E-05   5.470057319359284E-05
   5.538862170275339E-05   5.608532479674401E-05   5.679079133684061E-05
   5.750513155362530E-05   5.822845706421039E-05   5.896088088967848E-05
   5.970251747274242E-05   6.045348269562719E-05   6.121389389817668E-05
   6.198386989618844E-05   6.276353099997864E-05   6.355299903318099E-05
   6.435239735178186E-05   6.516185086339485E-05   6.598148604677811E-05
   6.681143097159657E-05   6.765181531843324E-05   6.850277039905212E-05
   6.936442917691575E-05   7.023692628796137E-05   7.112039806163760E-05
   7.201498254220655E-05   7.292081951031334E-05   7.383805050482711E-05
   7.476681884495700E-05   7.570726965264570E-05   7.665954987524524E-05
   7.762380830847789E-05   7.860019561968552E-05   7.958886437137219E-05
   8.058996904504157E-05   8.160366606533586E-05   8.263011382447681E-05
   8.366947270701504E-05   8.472190511489074E-05   8.578757549280856E-05
   8.686665035393338E-05   8.795929830590757E-05   8.906569007719656E-05
   9.018599854376585E-05   9.132039875609226E-05   9.246906796651719E-05
   9.363218565694167E-05   9.480993356687113E-05   9.600249572181289E-05
   9.721005846202960E-05   9.843281047165650E-05   9.967094280818268E-05
   1.009246489323047E-04   1.021941247381553E-04   1.034795685839117E-04
   1.047811813227902E-04   1.060991663344293E-04   1.074337295566686E-04
   1.087850795177269E-04   1.101534273687846E-04   1.115389869169777E-04
   1.129419746588043E-04   1.143626098139536E-04   1.158011143595590E-04
   1.172577130648821E-04   1.187326335264343E-04   1.202261062035385E-04
   1.217383644543388E-04   1.232696445722639E-04   1.248201858229473E-04
   1.263902304816142E-04   1.279800238709368E-04   1.295898143993665E-04
   1.312198535999489E-04   1.328703961696249E-04   1.345417000090295E-04
   1.362340262627876E-04   1.379476393603195E-04   1.396828070571583E-04
   1.414398004767865E-04   1.432188941530008E-04   1.450203660728076E-04
   1.468444977198593E-04   1.486915741184375E-04   1.505618838779868E-04
   1.524557192382127E-04   1.543733761147432E-04   1.563151541453665E-04
   1.582813567368510E-04   1.602722911123512E-04   1.622882683594144E-04
   1.643296034785868E-04   1.663966154326337E-04   1.684896271963788E-04
   1.706089658071679E-04   1.727549624159711E-04   1.749279523391246E-04
   1.771282751107246E-04   1.793562745356811E-04   1.816122987434368E-04
   1.838967002423644E-04   1.862098359748456E-04   1.885520673730445E-04
   1.909237604153830E-04   1.933252856837234E-04   1.957570184212755E-04
   1.982193385912266E-04   2.007126309361127E-04   2.032372850379361E-04
   2.057936953790357E-04   2.083822614037291E-04   2.110033875807237E-04
   2.136574834663175E-04   2.163449637683925E-04   2.190662484112134E-04
   2.218217626010425E-04   2.246119368925779E-04   2.274372072562291E-04
   2.302980151462388E-04   2.331948075696600E-04   2.361280371562026E-04
   2.390981622289570E-04   2.421056468760087E-04   2.451509610229525E-04
   2.482345805063196E-04   2.513569871479281E-04   2.545186688301682E-04
   2.577201195722352E-04   2.609618396073210E-04   2.642443354607765E-04
   2.675681200292571E-04   2.709337126608638E-04   2.743416392362925E-04
   2.777924322510045E-04   2.812866308984286E-04   2.848247811542129E-04
   2.884074358615330E-04   2.920351548174758E-04   2.957085048605091E-04
   2.994280599590504E-04   3.031944013011515E-04   3.070081173853098E-04
   3.108698041124222E-04   3.147800648788969E-04   3.187395106709337E-04
   3.227487601599936E-04   3.268084397994660E-04   3.309191839225538E-04
   3.350816348413900E-04   3.392964429473989E-04   3.435642668129224E-04
   3.478857732941224E-04   3.522616376351785E-04   3.566925435737972E-04
   3.611791834480457E-04   3.657222583045329E-04   3.703224780079479E-04
   3.749805613519784E-04   3.796972361716242E-04   3.844732394569217E-04
   3.893093174681014E-04   3.942062258521915E-04   3.991647297610895E-04
   4.041856039711199E-04   4.092696330040925E-04   4.144176112498878E-04
   4.196303430905800E-04   4.249086430261245E-04   4.302533358016254E-04
   4.356652565362023E-04   4.411452508534811E-04   4.466941750137227E-04
   4.523128960476163E-04   4.580022918917553E-04   4.637632515258152E-04
   4.695966751114598E-04   4.755034741329923E-04   4.814845715397774E-04
   4.875409018904537E-04   4.936734114989598E-04   4.998830585823991E-04
   5.061708134107620E-04   5.125376584585327E-04   5.189845885582036E-04
   5.255126110557188E-04   5.321227459678756E-04   5.388160261417020E-04
   5.455934974158424E-04   5.524562187839728E-04   5.594052625602690E-04
   5.664417145469592E-04   5.735666742039822E-04   5.807812548207799E-04
   5.880865836902514E-04   5.954838022848967E-04   6.029740664351700E-04
   6.105585465100842E-04   6.182384276000815E-04   6.260149097022067E-04
   6.338892079076107E-04   6.418625525914077E-04   6.499361896049267E-04
   6.581113804703771E-04   6.663894025779631E-04   6.747715493854825E-04
   6.832591306204267E-04   6.918534724846319E-04   7.005559178614995E-04
   7.093678265258245E-04   7.182905753562648E-04   7.273255585504781E-04
   7.364741878429703E-04   7.457378927256814E-04   7.551181206713456E-04
   7.646163373596651E-04   7.742340269063212E-04   7.839726920948727E-04
   7.938338546115688E-04   8.038190552831148E-04   8.139298543174321E-04
   8.241678315474397E-04   8.345345866779090E-04   8.450317395354205E-04
   8.556609303214643E-04   8.664238198687271E-04   8.773220899005974E-04
   8.883574432939403E-04   8.995316043451751E-04   9.108463190396993E-04
   9.223033553247056E-04   9.339045033854220E-04   9.456515759248360E-04
   9.575464084469312E-04   9.695908595434887E-04   9.817868111844988E-04
   9.941361690122170E-04   1.006640862638929E-03   1.019302845948456E-03
   1.032124097401448E-03   1.045106620344534E-03   1.058252443323334E-03
   1.071563620399434E-03   1.085042231471336E-03   1.098690382599439E-03
   1.112510206335127E-03   1.126503862053975E-03   1.140673536293158E-03
   1.155021443093106E-03   1.169549824343445E-03   1.184260950133307E-03
   1.199157119106025E-03   1.214240658818307E-03   1.229513926103921E-03
   1.244979307441955E-03   1.260639219329705E-03   1.276496108660267E-03
   1.292552453104859E-03   1.308810761499966E-03   1.325273574239355E-03
   1.341943463671007E-03   1.358823034499064E-03   1.375914924190808E-03
   1.393221803388779E-03   1.410746376328060E-03   1.428491381258827E-03
   1.446459590874205E-03   1.464653812743502E-03   1.483076889750902E-03
   1.501731700539669E-03   1.520621159961940E-03   1.539748219534185E-03
   1.559115867898374E-03   1.578727131288968E-03   1.598585074005772E-03
   1.618692798892733E-03   1.639053447822780E-03   1.659670202188729E-03
   1.680546283400395E-03   1.701684953387940E-03   1.723089515111556E-03
   1.744763313077562E-03   1.766709733860985E-03   1.788932206634723E-03
   1.811434203705358E-03   1.834219241055712E-03   1.857290878894231E-03
   1.880652722211265E-03   1.904308421342362E-03   1.928261672538639E-03
   1.952516218544327E-03   1.977075849181590E-03   2.001944401942680E-03
   2.027125762589560E-03   2.052623865761065E-03   2.078442695587688E-03
   2.104586286314124E-03   2.131058722929610E-03   2.157864141806227E-03
   2.185006731345210E-03   2.212490732631394E-03   2.240320440095901E-03
   2.268500202187140E-03   2.297034422050271E-03   2.325927558215200E-03
   2.355184125293234E-03   2.384808694682507E-03   2.414805895282254E-03
   2.445180414216101E-03   2.475936997564427E-03   2.507080451105953E-03
   2.538615641068662E-03   2.570547494890140E-03   2.602881001987516E-03
   2.635621214537054E-03   2.668773248263574E-03   2.702342283239800E-03
   2.736333564695739E-03   2.770752403838276E-03   2.805604178681053E-03
   2.840894334884792E-03   2.876628386608203E-03   2.912811917369569E-03
   2.949450580919184E-03   2.986550102122773E-03   3.024116277855998E-03
   3.062154977910255E-03   3.100672145909811E-03   3.139673800240533E-03
   3.179166034990259E-03   3.219155020901012E-03   3.259647006333207E-03
   3.300648318241943E-03   3.342165363165626E-03   3.384204628226992E-03
   3.426772682146733E-03   3.469876176269886E-03   3.513521845605100E-03
   3.557716509877004E-03   3.602467074591808E-03   3.647780532116289E-03
   3.693663962770384E-03   3.740124535933480E-03   3.787169511164657E-03
   3.834806239337010E-03   3.883042163786230E-03   3.931884821473657E-03
   3.981341844163920E-03   4.031420959617436E-03   4.082129992797882E-03
   4.133476867094857E-03   4.185469605561944E-03   4.238116332170304E-03
   4.291425273078080E-03   4.345404757915747E-03   4.400063221087629E-03
   4.455409203089808E-03   4.511451351844570E-03   4.568198424051678E-03
   4.625659286556615E-03   4.683842917736049E-03   4.742758408900737E-03
   4.802414965716032E-03   4.862821909640309E-03   4.923988679381455E-03
   4.985924832371684E-03   5.048640046260918E-03   5.112144120428918E-03
   5.176446977516473E-03   5.241558664975828E-03   5.307489356640615E-03
   5.374249354315552E-03   5.441849089386097E-03   5.510299124448386E-03
   5.579610154959661E-03   5.649793010909449E-03   5.720858658511790E-03
   5.792818201918700E-03   5.865682884955240E-03   5.939464092876379E-03
   6.014173354145958E-03   6.089822342238059E-03   6.166422877460973E-03
   6.243986928804176E-03   6.322526615808496E-03   6.402054210459809E-03
   6.482582139106593E-03   6.564122984401529E-03   6.646689487267589E-03
   6.730294548888829E-03   6.814951232726218E-03   6.900672766558853E-03
   6.987472544550791E-03   7.075364129343936E-03   7.164361254177233E-03
   7.254477825032495E-03   7.345727922807274E-03   7.438125805514991E-03
   7.531685910512806E-03   7.626422856757470E-03   7.722351447089576E-03
   7.819486670546541E-03   7.917843704704648E-03   8.017437918050594E-03
   8.118284872382839E-03   8.220400325243167E-03   8.323800232378853E-03
   8.428500750235754E-03   8.534518238482797E-03   8.641869262568214E-03
   8.750570596307921E-03   8.860639224506481E-03   8.972092345610980E-03
   9.084947374398347E-03   9.199221944696433E-03   9.314933912139330E-03
   9.432101356957387E-03   9.550742586802229E-03   9.670876139607397E-03
   9.792520786484927E-03   9.915695534658375E-03   1.004041963043276E-02
   1.016671256220180E-02   1.029459406349301E-02   1.042408411605116E-02
   1.055520295296040E-02   1.068797106180578E-02   1.082240918787441E-02
   1.095853833739700E-02   1.109637978083014E-02   1.123595505617977E-02
   1.137728597236668E-02   1.152039461263404E-02   1.166530333799804E-02
   1.181203479074185E-02   1.196061189795347E-02   1.211105787510822E-02
   1.226339622969609E-02   1.241765076489492E-02   1.257384558328968E-02
   1.273200509063850E-02   1.289215399968621E-02   1.305431733402566E-02
   1.321852043200777E-02   1.338478895070066E-02   1.355314886989866E-02
   1.372362649618169E-02   1.389624846702568E-02   1.407104175496478E-02
   1.424803367180585E-02   1.442725187289597E-02   1.460872436144372E-02
   1.479247949289463E-02   1.497854597936184E-02   1.516695289411240E-02
   1.535772967611007E-02   1.555090613461519E-02   1.574651245384240E-02
   1.594457919767706E-02   1.614513731445085E-02   1.634821814177754E-02
   1.655385341144961E-02   1.676207525439630E-02   1.697291620570419E-02
   1.718640920970090E-02   1.740258762510262E-02   1.762148523022662E-02
   1.784313622826903E-02   1.806757525264925E-02   1.829483737242147E-02
   1.852495809775425E-02   1.875797338547914E-02   1.899391964470890E-02
   1.923283374252658E-02   1.947475300974603E-02   1.971971524674493E-02
   1.996775872937122E-02   2.021892221492370E-02   2.047324494820798E-02
   2.073076666766855E-02   2.099152761159800E-02   2.125556852442438E-02
   2.152293066307749E-02   2.179365580343545E-02   2.206778624685223E-02
   2.234536482676732E-02   2.262643491539862E-02   2.291104043051928E-02
   2.319922584232009E-02   2.349103618035794E-02   2.378651704059185E-02
   2.408571459250741E-02   2.438867558633082E-02   2.469544736033374E-02
   2.500607784822999E-02   2.532061558666527E-02   2.563910972280117E-02
   2.596161002199443E-02   2.628816687557295E-02   2.661883130870946E-02
   2.695365498839436E-02   2.729269023150886E-02   2.763599001299945E-02
   2.798360797415542E-02   2.833559843099044E-02   2.869201638272952E-02
   2.905291752040277E-02   2.941835823554721E-02   2.978839562901807E-02
   3.016308751991092E-02   3.054249245459601E-02   3.092666971586637E-02
   3.131567933220058E-02   3.170958208714269E-02   3.210843952879961E-02
   3.251231397945799E-02   3.292126854532253E-02   3.333536712637605E-02
   3.375467442636441E-02   3.417925596290636E-02   3.460917807773069E-02
   3.504450794704264E-02   3.548531359201988E-02   3.593166388944129E-02
   3.638362858244903E-02   3.684127829144577E-02   3.730468452512979E-02
   3.777391969166776E-02   3.824905711000919E-02   3.873017102134244E-02
   3.921733660069485E-02   3.971062996867947E-02   4.021012820338855E-02
   4.071590935243754E-02   4.122805244516008E-02   4.174663750495623E-02
   4.227174556179679E-02   4.280345866488384E-02   4.334185989547161E-02
   4.388703337984780E-02   4.443906430247840E-02   4.499803891931831E-02
   4.556404457128850E-02   4.613716969792372E-02   4.671750385119113E-02
   4.730513770948270E-02   4.790016309178452E-02   4.850267297202297E-02
   4.911276149359277E-02   4.973052398406672E-02   5.035605697009062E-02
   5.098945819246638E-02   5.163082662142348E-02   5.228026247208391E-02
   5.293786722012073E-02   5.360374361761351E-02   5.427799570910431E-02
   5.496072884785400E-02   5.565204971230464E-02   5.635206632274790E-02
   5.706088805820316E-02   5.777862567350889E-02   5.850539131662753E-02
   5.924129854616954E-02   5.998646234913685E-02   6.074099915888952E-02
   6.150502687333938E-02   6.227866487337105E-02   6.306203404149612E-02
   6.385525678074098E-02   6.465845703377225E-02   6.547176030226382E-02
   6.629529366650581E-02   6.712918580526205E-02   6.797356701587584E-02
   6.882856923462906E-02   6.969432605735811E-02   7.057097276032771E-02
   7.145864632136886E-02   7.235748544128162E-02   7.326763056550688E-02
   7.418922390607230E-02   7.512240946381205E-02   7.606733305086824E-02
   7.702414231347396E-02   7.799298675502288E-02   7.897401775943035E-02
   7.996738861478649E-02   8.097325453730859E-02   8.199177269559367E-02
   8.302310223517585E-02   8.406740430339422E-02   8.512484207457133E-02
   8.619558077551043E-02   8.727978771131210E-02   8.837763229151564E-02
   8.948928605657057E-02   9.061492270463904E-02   9.175471811873760E-02
   9.290885039421881E-02   9.407749986659848E-02   9.526084913973462E-02
   9.645908311435838E-02   9.767238901696632E-02   9.890095642907430E-02
   1.001449773168397E-01   1.014046460610576E-01   1.026801594875318E-01
   1.039717168978302E-01   1.052795201004262E-01   1.066037734422306E-01
   1.079446838405226E-01   1.093024608152796E-01   1.106773165219166E-01
   1.120694657844351E-01   1.134791261289894E-01   1.149065178178765E-01
   1.163518638839516E-01   1.178153901654783E-01   1.192973253414158E-01
   1.207979009671501E-01   1.223173515106758E-01   1.238559143892315E-01
   1.254138300063974E-01   1.269913417896583E-01   1.285886962284396E-01
   1.302061429126225E-01   1.318439345715417E-01   1.335023271134763E-01
   1.351815796656353E-01   1.368819546146458E-01   1.386037176475536E-01
   1.403471377933350E-01   1.421124874649351E-01   1.439000425018319E-01
   1.457100822131363E-01   1.475428894212363E-01   1.493987505059864E-01
   1.512779554494574E-01   1.531807978812445E-01   1.551075751243494E-01
   1.570585882416365E-01   1.590341420828743E-01   1.610345453323702E-01
   1.630601105572014E-01   1.651111542560555E-01   1.671879969086837E-01
   1.692909630259752E-01   1.714203812006649E-01   1.735765841586744E-01
   1.757599088111030E-01   1.779706963068700E-01   1.802092920860188E-01
   1.824760459336950E-01   1.847713120347985E-01   1.870954490293275E-01
   1.894488200684163E-01   1.918317928710771E-01   1.942447397816592E-01
   1.966880378280257E-01   1.991620687804679E-01   2.016672192113557E-01
   2.042038805555401E-01   2.067724491715177E-01   2.093733264033597E-01
   2.120069186434257E-01   2.146736373958614E-01   2.173738993408968E-01
   2.201081263999553E-01   2.228767458015768E-01   2.256801901481761E-01
   2.285188974836363E-01   2.313933113617532E-01   2.343038809155442E-01
   2.372510609274228E-01   2.402353119002623E-01   2.432571001293492E-01
   2.463168977752413E-01   2.494151829375468E-01   2.525524397296250E-01
   2.557291583542329E-01   2.589458351801191E-01   2.622029728195812E-01
   2.655010802070028E-01   2.688406726783725E-01   2.722222720518088E-01
   2.756464067090941E-01   2.791136116782342E-01   2.826244287170606E-01
   2.861794063978775E-01   2.897791001931805E-01   2.934240725624493E-01
   2.971148930400315E-01   3.008521383241366E-01   3.046363923669428E-01
   3.084682464658438E-01   3.123482993558392E-01   3.162771573030860E-01
   3.202554341996328E-01   3.242837516593375E-01   3.283627391149994E-01
   3.324930339167076E-01   3.366752814314273E-01   3.409101351438422E-01
   3.451982567584599E-01   3.495403163030074E-01   3.539369922331232E-01
   3.583889715383652E-01   3.628969498495587E-01   3.674616315474851E-01
   3.720837298729473E-01   3.767639670382131E-01   3.815030743398601E-01
   3.863017922730475E-01   3.911608706472141E-01   3.960810687032420E-01
   4.010631552320889E-01   4.061079086949094E-01   4.112161173446970E-01
   4.163885793494449E-01   4.216261029168652E-01   4.269295064206720E-01
   4.322996185284510E-01   4.377372783311463E-01   4.432433354741635E-01
   4.488186502901341E-01   4.544640939333420E-01   4.601805485158404E-01
   4.659689072452901E-01   4.718300745645170E-01   4.777649662928403E-01
   4.837745097691681E-01   4.898596439968934E-01   4.960213197906212E-01
   5.022604999247288E-01   5.085781592838063E-01   5.149752850149832E-01
   5.214528766821682E-01   5.280119464222399E-01   5.346535191031877E-01
   5.413786324842563E-01   5.481883373780950E-01   5.550836978149459E-01
   5.620657912089080E-01   5.691357085262772E-01   5.762945544560192E-01
   5.835434475823763E-01   5.908835205596455E-01   5.983159202891651E-01
   6.058418080985120E-01   6.134623599229689E-01   6.211787664892638E-01
   6.289922335016197E-01   6.369039818301558E-01   6.449152477016431E-01
   6.530272828926740E-01   6.612413549252524E-01   6.695587472648425E-01
   6.779807595209220E-01   6.865087076500379E-01   6.951439241614369E-01
   7.038877583252687E-01   7.127415763834084E-01   7.217067617629432E-01
   7.307847152923260E-01   7.399768554202663E-01   7.492846184373619E-01
   7.587094587005185E-01   7.682528488602047E-01   7.779162800905466E-01
   7.877012623223355E-01   7.976093244789543E-01   8.076420147152704E-01
   8.178009006595477E-01   8.280875696583803E-01   8.385036290247293E-01
   8.490507062890639E-01   8.597304494536617E-01   8.705445272501232E-01
   8.814946294001028E-01   8.925824668793408E-01   9.038097721850035E-01
   9.151782996063836E-01   9.266898254990238E-01   9.383461485622615E-01
   9.501490901202921E-01   9.621004944067489E-01   9.742022288528641E-01
   9.864561843792687E-01   9.988642756914419E-01   1.011428441578897E+00
   1.024150645218117E+00   1.037032874479302E+00   1.050077142236986E+00
   1.063285486684541E+00   1.076659971652661E+00   1.090202686931836E+00
   1.103915748598877E+00   1.117801299347572E+00   1.131861508823473E+00
   1.146098573962918E+00   1.160514719336302E+00   1.175112197495666E+00
   1.189893289326674E+00   1.204860304404995E+00   1.220015581357186E+00
   1.235361488226108E+00   1.250900422840925E+00   1.266634813191790E+00
   1.282567117809203E+00   1.298699826148176E+00   1.315035458977212E+00
   1.331576568772172E+00   1.348325740115119E+00   1.365285590098146E+00
   1.382458768732321E+00   1.399847959361747E+00   1.417455879082833E+00
   1.435285279168866E+00   1.453338945499876E+00   1.471619698997962E+00
   1.490130396068052E+00   1.508873929044219E+00   1.527853226641630E+00
   1.547071254414143E+00   1.566531015217699E+00   1.586235549679517E+00
   1.606187936673191E+00   1.626391293799788E+00   1.646848777874957E+00
   1.667563585422209E+00   1.688538953172371E+00   1.709778158569321E+00
   1.731284520282123E+00   1.753061398723541E+00   1.775112196575140E+00
   1.797440359318951E+00   1.820049375775824E+00   1.842942778650584E+00
   1.866124145084001E+00   1.889597097211747E+00   1.913365302730350E+00
   1.937432475470273E+00   1.961802375976230E+00   1.986478812094747E+00
   2.011465639569176E+00   2.036766762642150E+00   2.062386134665618E+00
   2.088327758718588E+00   2.114595688232590E+00   2.141194027625056E+00
   2.168126932940636E+00   2.195398612500572E+00   2.223013327560289E+00
   2.250975392975189E+00   2.279289177874886E+00   2.307959106345880E+00
   2.336989658122816E+00   2.366385369288480E+00   2.396150832982540E+00
   2.426290700119260E+00   2.456809680114204E+00   2.487712541620080E+00
   2.519004113271880E+00   2.550689284441327E+00   2.582773006000886E+00
   2.615260291097329E+00   2.648156215935041E+00   2.681465920569212E+00
   2.715194609708953E+00   2.749347553530566E+00   2.783930088501015E+00
   2.818947618211737E+00   2.854405614223003E+00   2.890309616918820E+00
   2.926665236372660E+00   2.963478153224036E+00   3.000754119566091E+00
   3.038498959844416E+00   3.076718571767085E+00   3.115418927226224E+00
   3.154606073231118E+00   3.194286132853044E+00   3.234465306182060E+00
   3.275149871295732E+00   3.316346185240138E+00   3.358060685023152E+00
   3.400299888620223E+00   3.443070395992860E+00   3.486378890119847E+00
   3.530232138041508E+00   3.574636991917057E+00   3.619600390095242E+00
   3.665129358198520E+00   3.711231010220774E+00   3.757912549638933E+00
   3.805181270538512E+00   3.853044558753308E+00   3.901509893019496E+00
   3.950584846144144E+00   4.000277086188529E+00   4.050594377666267E+00
   4.101544582756504E+00   4.153135662532463E+00   4.205375678205305E+00
   4.258272792383770E+00   4.311835270349576E+00   4.366071481348863E+00
   4.420989899899960E+00   4.476599107117482E+00   4.532907792053203E+00
   4.589924753053714E+00   4.647658899135155E+00   4.706119251375330E+00
   4.765314944323197E+00   4.825255227426224E+00   4.885949466475603E+00
   4.947407145069651E+00   5.009637866095703E+00   5.072651353230511E+00
   5.136457452459651E+00   5.201066133615950E+00   5.266487491937270E+00
   5.332731749643965E+00   5.399809257536060E+00   5.467730496610643E+00
   5.536506079699515E+00   5.606146753127438E+00   5.676663398391343E+00
   5.748067033860496E+00   5.820368816498225E+00   5.893580043605174E+00
   5.967712154584507E+00   6.042776732729409E+00   6.118785507032915E+00
   6.195750354020660E+00   6.273683299606584E+00   6.352596520971969E+00
   6.432502348468223E+00   6.513413267543443E+00   6.595341920693357E+00
   6.678301109436721E+00   6.762303796315531E+00   6.847363106920541E+00
   6.933492331942063E+00   7.020704929246752E+00   7.109014525980383E+00
   7.198434920697088E+00   7.288980085515494E+00   7.380664168301795E+00
   7.473501494880470E+00   7.567506571272690E+00   7.662694085962871E+00
   7.759078912193869E+00   7.856676110290851E+00   7.955500930014599E+00
   8.055568812944268E+00   8.156895394890128E+00   8.259496508336786E+00
   8.363388184916932E+00   8.468586657916418E+00   8.575108364810692E+00
   8.682969949833145E+00   8.792188266575916E+00   8.902780380623168E+00
   9.014763572217742E+00   9.128155338961168E+00   9.242973398547667E+00
   9.359235691532684E+00   9.476960384135994E+00   9.596165871080354E+00
   9.716870778465639E+00   9.839093966679167E+00   9.962854533342799E+00
   1.008817181629684E+01   1.021506539662171E+01   1.034355510169754E+01
   1.047366100830212E+01   1.060540344574809E+01   1.073880299905930E+01
   1.087388051218738E+01   1.101065709126859E+01   1.114915410792164E+01
   1.128939320258721E+01   1.143139628790911E+01   1.157518555215836E+01
   1.172078346270004E+01   1.186821276950388E+01   1.201749650869903E+01