<UPF version="2.0.1">
  <PP_INFO>
    Generated using "atomic" code by A. Dal Corso  v.7.0
    Author: ADC
    Generation date: 19Feb2023
    Pseudopotential type: USPP
    Element: Ge
    Functional: PBE
    Suggested minimum cutoff for wavefunctions:  20. Ry
    Suggested minimum cutoff for charge density: 116. Ry
    The Pseudo was generated with a Scalar-Relativistic Calculation
    L component and cutoff radius for Local Potential:  2   2.2000
    Valence configuration: 
    nl pn  l   occ       Rcut    Rcut US       E pseu
    4S  1  0  2.00      1.500      1.700    -0.862224
    4P  2  1  2.00      1.500      2.000    -0.286299
    Generation configuration:
    4S  1  0  2.00      1.500      1.700    -0.862222
    4S  1  0  0.00      1.500      1.700     0.300000
    4P  2  1  2.00      1.500      2.000    -0.286298
    4P  2  1  0.00      1.500      2.000     0.300000
    4D  3  2 -2.00      2.200      2.200     0.500000
    Pseudization used: troullier-martins
    <PP_INPUTFILE>
@input
title='Ge',
zed=32.,
rel=1,
config='[Ar] 4s2 4p2 3d10 4d-1',
iswitch=3,
dft='PBE'
/
@inputp
lpaw=.false.,
pseudotype=3,
file_pseudopw='Ge.pbe-n-rrkjus_psl.1.0.0.UPF',
author='ADC',
lloc=2,
which_augfun='PSQ',
rmatch_augfun_nc=.true.,
nlcc=.true.,
new_core_ps=.true.,
rcore=1.8,
tm=.true.
/
5
4S  1  0  2.00  0.00  1.50  1.70  0.0
4S  1  0  0.00  0.30  1.50  1.70  0.0
4P  2  1  2.00  0.00  1.50  2.00  0.0
4P  2  1  0.00  0.30  1.50  2.00  0.0
4D  3  2 -2.00  0.50  2.20  2.20  0.0
    </PP_INPUTFILE>
  </PP_INFO>
    <!-- END OF HUMAN READABLE SECTION -->
  <PP_HEADER generated="Generated using 'atomic' code by A. Dal Corso  v.7.0" author="ADC" date="19Feb2023" comment="" element="Ge" pseudo_type="USPP" relativistic="scalar" is_ultrasoft="true" is_paw="false" is_coulomb="false" has_so="false" has_wfc="false" has_gipaw="false" paw_as_gipaw="false" core_correction="true" functional="PBE" z_valence="4.00000000000000" total_psenergy="-11.4548853314879" wfc_cutoff="19.6187666165499" rho_cutoff="115.767375733576" l_max="2" l_max_rho="4" l_local="2" mesh_size="1207" number_of_wfc="2" number_of_proj="4"/>
  <PP_MESH mesh="1207" dx="1.250000000000000E-002" xmin="-7.00000000000000" rmax="100.000000000000" zmesh="32.0000000000000">
    <PP_R>
   2.849631142357863E-05   2.885475089590694E-05   2.921769898176819E-05
   2.958521239253919E-05   2.995734855293812E-05   3.033416560999715E-05
   3.071572244214808E-05   3.110207866842223E-05   3.149329465776595E-05
   3.188943153847358E-05   3.229055120773866E-05   3.269671634132558E-05
   3.310799040336282E-05   3.352443765625928E-05   3.394612317074556E-05
   3.437311283604119E-05   3.480547337015010E-05   3.524327233028539E-05
   3.568657812342523E-05   3.613546001700181E-05   3.658998814972420E-05
   3.705023354253790E-05   3.751626810972190E-05   3.798816467012546E-05
   3.846599695854628E-05   3.894983963725155E-05   3.943976830764420E-05
   3.993585952207576E-05   4.043819079580775E-05   4.094684061912375E-05
   4.146188846959348E-05   4.198341482449146E-05   4.251150117337168E-05
   4.304623003080053E-05   4.358768494924996E-05   4.413595053215255E-05
   4.469111244712108E-05   4.525325743933424E-05   4.582247334509072E-05
   4.639884910553396E-05   4.698247478054914E-05   4.757344156283536E-05
   4.817184179215470E-05   4.877776896976038E-05   4.939131777300678E-05
   5.001258407014263E-05   5.064166493529083E-05   5.127865866361644E-05
   5.192366478668543E-05   5.257678408801691E-05   5.323811861883044E-05
   5.390777171399195E-05   5.458584800815999E-05   5.527245345213502E-05
   5.596769532941468E-05   5.667168227295673E-05   5.738452428215335E-05
   5.810633274001878E-05   5.883722043059304E-05   5.957730155656489E-05
   6.032669175711592E-05   6.108550812598960E-05   6.185386922978740E-05
   6.263189512649497E-05   6.341970738424169E-05   6.421742910029559E-05
   6.502518492029779E-05   6.584310105773857E-05   6.667130531367838E-05
   6.750992709671733E-05   6.835909744321516E-05   6.921894903776615E-05
   7.008961623393135E-05   7.097123507523147E-05   7.186394331640425E-05
   7.276788044492856E-05   7.368318770281978E-05   7.461000810869917E-05
   7.554848648014073E-05   7.649876945629947E-05   7.746100552082370E-05
   7.843534502505620E-05   7.942194021152682E-05   8.042094523774062E-05
   8.143251620026557E-05   8.245681115912255E-05   8.349399016248283E-05
   8.454421527167583E-05   8.560765058651151E-05   8.668446227092152E-05
   8.777481857892227E-05   8.887888988090524E-05   8.999684869025759E-05
   9.112886969031774E-05   9.227512976167021E-05   9.343580800978313E-05
   9.461108579299423E-05   9.580114675084822E-05   9.700617683279090E-05
   9.822636432722439E-05   9.946189989092709E-05   1.007129765788446E-04
   1.019797898742546E-04   1.032625377193119E-04   1.045614205459773E-04
   1.058766413073347E-04   1.072084055093042E-04   1.085569212427517E-04
   1.099223992160040E-04   1.113050527877728E-04   1.127050980004916E-04
   1.141227536140732E-04   1.155582411400916E-04   1.170117848763931E-04
   1.184836119421440E-04   1.199739523133176E-04   1.214830388586291E-04
   1.230111073759214E-04   1.245583966290091E-04   1.261251483849862E-04
   1.277116074520021E-04   1.293180217175136E-04   1.309446421870181E-04
   1.325917230232731E-04   1.342595215860106E-04   1.359482984721490E-04
   1.376583175565127E-04   1.393898460330626E-04   1.411431544566458E-04
   1.429185167852710E-04   1.447162104229139E-04   1.465365162628628E-04
   1.483797187316087E-04   1.502461058332871E-04   1.521359691946801E-04
   1.540496041107829E-04   1.559873095909443E-04   1.579493884055879E-04
   1.599361471335204E-04   1.619478962098351E-04   1.639849499744183E-04
   1.660476267210649E-04   1.681362487472131E-04   1.702511424043039E-04
   1.723926381487741E-04   1.745610705936906E-04   1.767567785610346E-04
   1.789801051346433E-04   1.812313977138169E-04   1.835110080676016E-04
   1.858192923897529E-04   1.881566113543925E-04   1.905233301723637E-04
   1.929198186482969E-04   1.953464512383925E-04   1.978036071089296E-04
   2.002916701955120E-04   2.028110292630590E-04   2.053620779665504E-04
   2.079452149125367E-04   2.105608437214208E-04   2.132093730905259E-04
   2.158912168579541E-04   2.186067940672503E-04   2.213565290328789E-04
   2.241408514065218E-04   2.269601962442154E-04   2.298150040743261E-04
   2.327057209663856E-04   2.356327986007899E-04   2.385966943393738E-04
   2.415978712968772E-04   2.446367984133054E-04   2.477139505272029E-04
   2.508298084498488E-04   2.539848590403816E-04   2.571795952818759E-04
   2.604145163583690E-04   2.636901277328603E-04   2.670069412262921E-04
   2.703654750975198E-04   2.737662541242946E-04   2.772098096852581E-04
   2.806966798429724E-04   2.842274094279945E-04   2.878025501240044E-04
   2.914226605540102E-04   2.950883063676316E-04   2.988000603294845E-04
   3.025585024086779E-04   3.063642198694321E-04   3.102178073628441E-04
   3.141198670197996E-04   3.180710085450584E-04   3.220718493125234E-04
   3.261230144617033E-04   3.302251369953955E-04   3.343788578785915E-04
   3.385848261386297E-04   3.428436989666090E-04   3.471561418200721E-04
   3.515228285269895E-04   3.559444413910430E-04   3.604216712982382E-04
   3.649552178248579E-04   3.695457893467693E-04   3.741941031501132E-04
   3.789008855433781E-04   3.836668719708886E-04   3.884928071277216E-04
   3.933794450760624E-04   3.983275493630334E-04   4.033378931399960E-04
   4.084112592833587E-04   4.135484405169044E-04   4.187502395356509E-04
   4.240174691312792E-04   4.293509523191295E-04   4.347515224668006E-04
   4.402200234243667E-04   4.457573096562267E-04   4.513642463746212E-04
   4.570417096748194E-04   4.627905866720125E-04   4.686117756399287E-04
   4.745061861511858E-04   4.804747392194198E-04   4.865183674431903E-04
   4.926380151517027E-04   4.988346385523632E-04   5.051092058801836E-04
   5.114626975490759E-04   5.178961063050392E-04   5.244104373812800E-04
   5.310067086552839E-04   5.376859508078557E-04   5.444492074841723E-04
   5.512975354568489E-04   5.582320047910636E-04   5.652536990117598E-04
   5.723637152729431E-04   5.795631645291214E-04   5.868531717088878E-04
   5.942348758906955E-04   6.017094304808416E-04   6.092780033936873E-04
   6.169417772341494E-04   6.247019494824822E-04   6.325597326813872E-04
   6.405163546254768E-04   6.485730585531169E-04   6.567311033406885E-04
   6.649917636992867E-04   6.733563303738991E-04   6.818261103450867E-04
   6.904024270332013E-04   6.990866205051750E-04   7.078800476839054E-04
   7.167840825602791E-04   7.258001164078617E-04   7.349295580002846E-04
   7.441738338313712E-04   7.535343883380274E-04   7.630126841259386E-04
   7.726102021981062E-04   7.823284421862546E-04   7.921689225851545E-04
   8.021331809898886E-04   8.122227743361046E-04   8.224392791432911E-04
   8.327842917611089E-04   8.432594286188277E-04   8.538663264778928E-04
   8.646066426876743E-04   8.754820554444319E-04   8.864942640535344E-04
   8.976449891949823E-04   9.089359731922649E-04   9.203689802846028E-04
   9.319457969026159E-04   9.436682319474532E-04   9.555381170734405E-04
   9.675573069742779E-04   9.797276796728403E-04   9.920511368146235E-04
   1.004529603964877E-03   1.017165030909482E-03   1.029959391959605E-03
   1.042914686260190E-03   1.056032938102330E-03   1.069316197239564E-03
   1.082766539208157E-03   1.096386065651407E-03   1.110176904648030E-03
   1.124141211044677E-03   1.138281166792632E-03   1.152598981288750E-03
   1.167096891720676E-03   1.181777163416409E-03   1.196642090198271E-03
   1.211693994741313E-03   1.226935228936244E-03   1.242368174256916E-03
   1.257995242132433E-03   1.273818874323945E-03   1.289841543306173E-03
   1.306065752653747E-03   1.322494037432385E-03   1.339128964595006E-03
   1.355973133382824E-03   1.373029175731482E-03   1.390299756682298E-03
   1.407787574798682E-03   1.425495362587794E-03   1.443425886927504E-03
   1.461581949498718E-03   1.479966387223154E-03   1.498582072706609E-03
   1.517431914687812E-03   1.536518858492924E-03   1.555845886495748E-03
   1.575416018583731E-03   1.595232312629825E-03   1.615297864970294E-03
   1.635615810888512E-03   1.656189325104869E-03   1.677021622272817E-03
   1.698115957481172E-03   1.719475626762727E-03   1.741103967609262E-03
   1.763004359493042E-03   1.785180224394853E-03   1.807635027338703E-03
   1.830372276933236E-03   1.853395525919960E-03   1.876708371728373E-03
   1.900314457038062E-03   1.924217470347882E-03   1.948421146552296E-03
   1.972929267524949E-03   1.997745662709612E-03   2.022874209718517E-03
   2.048318834938261E-03   2.074083514143301E-03   2.100172273117180E-03
   2.126589188281569E-03   2.153338387333206E-03   2.180424049888865E-03
   2.207850408138426E-03   2.235621747506163E-03   2.263742407320358E-03
   2.292216781491317E-03   2.321049319197935E-03   2.350244525582888E-03
   2.379806962456573E-03   2.409741249009897E-03   2.440052062536037E-03
   2.470744139161271E-03   2.501822274585018E-03   2.533291324829164E-03
   2.565156206996837E-03   2.597421900040705E-03   2.630093445540950E-03
   2.663175948493027E-03   2.696674578105328E-03   2.730594568606887E-03
   2.764941220065229E-03   2.799719899214522E-03   2.834936040294142E-03
   2.870595145897778E-03   2.906702787833234E-03   2.943264607993022E-03
   2.980286319235927E-03   3.017773706279652E-03   3.055732626604689E-03
   3.094169011369572E-03   3.133088866337617E-03   3.172498272815346E-03
   3.212403388602701E-03   3.252810448955208E-03   3.293725767558260E-03
   3.335155737513632E-03   3.377106832338416E-03   3.419585606976531E-03
   3.462598698822936E-03   3.506152828760742E-03   3.550254802211368E-03
   3.594911510197888E-03   3.640129930421782E-03   3.685917128353206E-03
   3.732280258334988E-03   3.779226564700522E-03   3.826763382905686E-03
   3.874898140675040E-03   3.923638359162416E-03   3.972991654126112E-03
   4.022965737118882E-03   4.073568416692866E-03   4.124807599619696E-03
   4.176691292125953E-03   4.229227601144147E-03   4.282424735579452E-03
   4.336291007592353E-03   4.390834833897443E-03   4.446064737078552E-03
   4.501989346920415E-03   4.558617401757107E-03   4.615957749837402E-03
   4.674019350707348E-03   4.732811276610209E-03   4.792342713904015E-03
   4.852622964496969E-03   4.913661447300864E-03   4.975467699702823E-03
   5.038051379055527E-03   5.101422264186200E-03   5.165590256924580E-03
   5.230565383650080E-03   5.296357796858444E-03   5.362977776748089E-03
   5.430435732826411E-03   5.498742205536297E-03   5.567907867903078E-03
   5.637943527202214E-03   5.708860126647962E-03   5.780668747103259E-03
   5.853380608811158E-03   5.927007073147979E-03   6.001559644398569E-03
   6.077049971553864E-03   6.153489850131064E-03   6.230891224016724E-03
   6.309266187332983E-03   6.388626986327316E-03   6.468986021286025E-03
   6.550355848471807E-03   6.632749182085722E-03   6.716178896253771E-03
   6.800658027038531E-03   6.886199774476062E-03   6.972817504638432E-03
   7.060524751722215E-03   7.149335220163203E-03   7.239262786777778E-03
   7.330321502931182E-03   7.422525596733067E-03   7.515889475260693E-03
   7.610427726810025E-03   7.706155123175206E-03   7.803086621956679E-03
   7.901237368898327E-03   8.000622700254065E-03   8.101258145184113E-03
   8.203159428181481E-03   8.306342471528961E-03   8.410823397786996E-03
   8.516618532312895E-03   8.623744405811663E-03   8.732217756918983E-03
   8.842055534816658E-03   8.953274901880940E-03   9.065893236364230E-03
   9.179928135110404E-03   9.295397416304398E-03   9.412319122256322E-03
   9.530711522220603E-03   9.650593115250622E-03   9.771982633089184E-03
   9.894899043095418E-03   1.001936155120847E-02   1.014538960494843E-02
   1.027300289645513E-02   1.040222136556499E-02   1.053306520292670E-02
   1.066555485315606E-02   1.079971101803045E-02   1.093555465972361E-02
   1.107310700408090E-02   1.121238954393599E-02   1.135342404246911E-02
   1.149623253660757E-02   1.164083734046916E-02   1.178726104884866E-02
   1.193552654074841E-02   1.208565698295317E-02   1.223767583364997E-02
   1.239160684609353E-02   1.254747407231771E-02   1.270530186689373E-02
   1.286511489073559E-02   1.302693811495339E-02   1.319079682475517E-02
   1.335671662339771E-02   1.352472343618711E-02   1.369484351452967E-02
   1.386710344003375E-02   1.404153012866318E-02   1.421815083494293E-02
   1.439699315621769E-02   1.457808503696402E-02   1.476145477315671E-02
   1.494713101669013E-02   1.513514277985508E-02   1.532551943987207E-02
   1.551829074348156E-02   1.571348681159190E-02   1.591113814398592E-02
   1.611127562408638E-02   1.631393052378176E-02   1.651913450831243E-02
   1.672691964121845E-02   1.693731838934960E-02   1.715036362793833E-02
   1.736608864573662E-02   1.758452715021738E-02   1.780571327284134E-02
   1.802968157439021E-02   1.825646705036675E-02   1.848610513646298E-02
   1.871863171409706E-02   1.895408311601979E-02   1.919249613199181E-02
   1.943390801453189E-02   1.967835648473782E-02   1.992587973818043E-02
   2.017651645087163E-02   2.043030578530773E-02   2.068728739658857E-02
   2.094750143861374E-02   2.121098857035671E-02   2.147778996221788E-02
   2.174794730245757E-02   2.202150280370980E-02   2.229849920957822E-02
   2.257897980131477E-02   2.286298840458256E-02   2.315056939630369E-02
   2.344176771159319E-02   2.373662885078028E-02   2.403519888651785E-02
   2.433752447098140E-02   2.464365284315865E-02   2.495363183623054E-02
   2.526750988504540E-02   2.558533603368695E-02   2.590715994313751E-02
   2.623303189903773E-02   2.656300281954370E-02   2.689712426328307E-02
   2.723544843741120E-02   2.757802820576861E-02   2.792491709714112E-02
   2.827616931362375E-02   2.863183973908994E-02   2.899198394776730E-02
   2.935665821292112E-02   2.972591951564732E-02   3.009982555377569E-02
   3.047843475088541E-02   3.086180626543382E-02   3.125000000000000E-02
   3.164307661064483E-02   3.204109751638842E-02   3.244412490880705E-02
   3.285222176175077E-02   3.326545184118310E-02   3.368387971514474E-02
   3.410757076384225E-02   3.453659118986400E-02   3.497100802852442E-02
   3.541088915833832E-02   3.585630331162726E-02   3.630732008525886E-02
   3.676400995152160E-02   3.722644426913622E-02   3.769469529440565E-02
   3.816883619250531E-02   3.864894104891516E-02   3.913508488099578E-02
   3.962734364971001E-02   4.012579427149192E-02   4.063051463026535E-02
   4.114158358961319E-02   4.165908100510011E-02   4.218308773675013E-02
   4.271368566168113E-02   4.325095768689849E-02   4.379498776224918E-02
   4.434586089353931E-02   4.490366315581642E-02   4.546848170681879E-02
   4.604040480059424E-02   4.661952180128971E-02   4.720592319711479E-02
   4.779970061448062E-02   4.840094683231666E-02   4.900975579656779E-02
   4.962622263487325E-02   5.025044367143074E-02   5.088251644204722E-02
   5.152253970937901E-02   5.217061347836385E-02   5.282683901184662E-02
   5.349131884640204E-02   5.416415680835614E-02   5.484545803000933E-02
   5.553532896606371E-02   5.623387741025654E-02   5.694121251220344E-02
   5.765744479445316E-02   5.838268616975695E-02   5.911704995855532E-02
   5.986065090668427E-02   6.061360520330485E-02   6.137603049905777E-02
   6.214804592444662E-02   6.292977210845241E-02   6.372133119738174E-02
   6.452284687395274E-02   6.533444437662053E-02   6.615625051914609E-02
   6.698839371041124E-02   6.783100397448259E-02   6.868421297092822E-02
   6.954815401538966E-02   7.042296210041277E-02   7.130877391654075E-02
   7.220572787367202E-02   7.311396412268725E-02   7.403362457734818E-02
   7.496485293647182E-02   7.590779470638402E-02   7.686259722365471E-02
   7.782940967811976E-02   7.880838313619218E-02   7.979967056446646E-02
   8.080342685362021E-02   8.181980884261568E-02   8.284897534320650E-02
   8.389108716475226E-02   8.494630713934516E-02   8.601480014725335E-02
   8.709673314268286E-02   8.819227517986561E-02   8.930159743947393E-02
   9.042487325536754E-02   9.156227814167828E-02   9.271398982023339E-02
   9.388018824832600E-02   9.506105564683330E-02   9.625677652868847E-02
   9.746753772771236E-02   9.869352842780528E-02   9.993494019250858E-02
   1.011919669949363E-01   1.024648052480835E-01   1.037536538355172E-01
   1.050587141424510E-01   1.063801900872131E-01   1.077182881531087E-01
   1.090732174206825E-01   1.104451896003898E-01   1.118344190656744E-01
   1.132411228864669E-01   1.146655208631015E-01   1.161078355606595E-01
   1.175682923437473E-01   1.190471194117082E-01   1.205445478342804E-01
   1.220608115877017E-01   1.235961475912680E-01   1.251507957443540E-01
   1.267249989638961E-01   1.283190032223503E-01   1.299330575861253E-01
   1.315674142544987E-01   1.332223285990257E-01   1.348980592034389E-01
   1.365948679040549E-01   1.383130198306856E-01   1.400527834480645E-01
   1.418144305977971E-01   1.435982365408341E-01   1.454044800004834E-01
   1.472334432059608E-01   1.490854119364876E-01   1.509606755659464E-01
   1.528595271080939E-01   1.547822632623473E-01   1.567291844601426E-01
   1.587005949118775E-01   1.606968026544466E-01   1.627181195993703E-01
   1.647648615815341E-01   1.668373484085369E-01   1.689359039106615E-01
   1.710608559914752E-01   1.732125366790633E-01   1.753912821779111E-01
   1.775974329214359E-01   1.798313336251791E-01   1.820933333406712E-01
   1.843837855099693E-01   1.867030480208851E-01   1.890514832629047E-01
   1.914294581838121E-01   1.938373443470272E-01   1.962755179896614E-01
   1.987443600813072E-01   2.012442563835645E-01   2.037755975103160E-01
   2.063387789887636E-01   2.089342013212273E-01   2.115622700477273E-01
   2.142233958093495E-01   2.169179944124074E-01   2.196464868934156E-01
   2.224092995848749E-01   2.252068641818895E-01   2.280396178096199E-01
   2.309080030915828E-01   2.338124682188152E-01   2.367534670199015E-01
   2.397314590318884E-01   2.427469095720868E-01   2.458002898107779E-01
   2.488920768448369E-01   2.520227537722773E-01   2.551928097677389E-01
   2.584027401589211E-01   2.616530465039770E-01   2.649442366698869E-01
   2.682768249118093E-01   2.716513319534375E-01   2.750682850683629E-01
   2.785282181624605E-01   2.820316718573166E-01   2.855791935746977E-01
   2.891713376220903E-01   2.928086652793105E-01   2.964917448862039E-01
   3.002211519314535E-01   3.039974691424965E-01   3.078212865765806E-01
   3.116932017129602E-01   3.156138195462517E-01   3.195837526809691E-01
   3.236036214272405E-01   3.276740538977366E-01   3.317956861058128E-01
   3.359691620648861E-01   3.401951338890672E-01   3.444742618950501E-01
   3.488072147052926E-01   3.531946693524872E-01   3.576373113853475E-01
   3.621358349757313E-01   3.666909430271004E-01   3.713033472843561E-01
   3.759737684450481E-01   3.807029362719835E-01   3.854915897072583E-01
   3.903404769877129E-01   3.952503557618507E-01   4.002219932082201E-01
   4.052561661552854E-01   4.103536612028134E-01   4.155152748447746E-01
   4.207418135938034E-01   4.260340941072114E-01   4.313929433145967E-01
   4.368191985470515E-01   4.423137076679940E-01   4.478773292056547E-01
   4.535109324872164E-01   4.592153977746544E-01   4.649916164022765E-01
   4.708404909159935E-01   4.767629352143494E-01   4.827598746913133E-01
   4.888322463808804E-01   4.949809991034823E-01   5.012070936142399E-01
   5.075115027530893E-01   5.138952115967832E-01   5.203592176128170E-01
   5.269045308152828E-01   5.335321739226832E-01   5.402431825177395E-01
   5.470386052091966E-01   5.539195037956763E-01   5.608869534315830E-01
   5.679420427950959E-01   5.750858742582835E-01   5.823195640593443E-01
   5.896442424770276E-01   5.970610540072396E-01   6.045711575418693E-01
   6.121757265498756E-01   6.198759492606354E-01   6.276730288496146E-01
   6.355681836263634E-01   6.435626472248761E-01   6.516576687963573E-01
   6.598545132043946E-01   6.681544612226045E-01   6.765588097347524E-01
   6.850688719373897E-01   6.936859775450520E-01   7.024114729980195E-01
   7.112467216727103E-01   7.201931040947063E-01   7.292520181544601E-01
   7.384248793257265E-01   7.477131208867235E-01   7.571181941440931E-01
   7.666415686596679E-01   7.762847324800890E-01   7.860491923693249E-01
   7.959364740440967E-01   8.059481224122832E-01   8.160857018143123E-01
   8.263507962675876E-01   8.367450097140049E-01   8.472699662705596E-01
   8.579273104831281E-01   8.687187075834278E-01   8.796458437492080E-01
   8.907104263677287E-01   9.019141843025323E-01   9.132588681635919E-01
   9.247462505808431E-01   9.363781264811570E-01   9.481563133688112E-01
   9.600826516094667E-01   9.721590047177394E-01   9.843872596483739E-01
   9.967693270910781E-01   1.009307141769085E+00   1.022002662741443E+00
   1.034857873709135E+00   1.047874783325030E+00   1.061055425507736E+00
   1.074401859759413E+00   1.087916171487564E+00   1.101600472330892E+00
   1.115456900489247E+00   1.129487621057717E+00   1.143694826364939E+00
   1.158080736315644E+00   1.172647598737531E+00   1.187397689732494E+00
   1.202333314032254E+00   1.217456805358501E+00   1.232770526787517E+00
   1.248276871119435E+00   1.263978261252107E+00   1.279877150559681E+00
   1.295976023275963E+00   1.312277394882563E+00   1.328783812501962E+00
   1.345497855295499E+00   1.362422134866360E+00   1.379559295667665E+00
   1.396912015415652E+00   1.414483005508086E+00   1.432275011447922E+00
   1.450290813272280E+00   1.468533225986855E+00   1.487005100005741E+00
   1.505709321596838E+00   1.524648813332827E+00   1.543826534547818E+00
   1.563245481799775E+00   1.582908689338708E+00   1.602819229580803E+00
   1.622980213588484E+00   1.643394791556514E+00   1.664066153304240E+00
   1.684997528773986E+00   1.706192188535757E+00   1.727653444298265E+00
   1.749384649426380E+00   1.771389199465121E+00   1.793670532670195E+00
   1.816232130545250E+00   1.839077518385858E+00   1.862210265830343E+00
   1.885633987417564E+00   1.909352343151668E+00   1.933369039073996E+00
   1.957687827842154E+00   1.982312509316354E+00   2.007246931153186E+00
   2.032494989406782E+00   2.058060629137616E+00   2.083947845028913E+00
   2.110160682010817E+00   2.136703235892444E+00   2.163579654001833E+00
   2.190794135833996E+00   2.218350933707092E+00   2.246254353426846E+00
   2.274508754959367E+00   2.303118553112370E+00   2.332088218225028E+00
   2.361422276866459E+00   2.391125312542997E+00   2.421201966414405E+00
   2.451656938019036E+00   2.482494986008167E+00   2.513720928889541E+00
   2.545339645780254E+00   2.577356077169160E+00   2.609775225688790E+00
   2.642602156897063E+00   2.675842000068771E+00   2.709499948997028E+00
   2.743581262804841E+00   2.778091266766823E+00   2.813035353141307E+00
   2.848418982012889E+00   2.884247682145559E+00   2.920527051846617E+00
   2.957262759841380E+00   2.994460546158965E+00   3.032126223029170E+00
   3.070265675790627E+00   3.108884863810436E+00   3.147989821415285E+00
   3.187586658834365E+00   3.227681563154089E+00   3.268280799284820E+00
   3.309390710939813E+00   3.351017721626393E+00   3.393168335649675E+00
   3.435849139128863E+00   3.479066801026323E+00   3.522828074189666E+00
   3.567139796406845E+00   3.612008891474614E+00   3.657442370280372E+00
   3.703447331897604E+00   3.750030964695174E+00   3.797200547460468E+00
   3.844963450536767E+00   3.893327136974858E+00   3.942299163699130E+00
   3.991887182688407E+00   4.042098942171530E+00   4.092942287838081E+00
   4.144425164064271E+00   4.196555615154235E+00   4.249341786597035E+00
   4.302791926339335E+00   4.356914386074224E+00   4.411717622546156E+00
   4.467210198872313E+00   4.523400785880661E+00   4.580298163464724E+00
   4.637911221955519E+00   4.696248963510656E+00   4.755320503520926E+00
   4.815135072034654E+00   4.875702015199847E+00   4.937030796724608E+00
   4.999130999355834E+00   5.062012326376511E+00   5.125684603121937E+00
   5.190157778514878E+00   5.255441926620170E+00   5.321547248218786E+00
   5.388484072401698E+00   5.456262858183889E+00   5.524894196138514E+00
   5.594388810051771E+00   5.664757558598480E+00   5.736011437038750E+00
   5.808161578936073E+00   5.881219257896890E+00   5.955195889332187E+00
   6.030103032241144E+00   6.105952391017217E+00   6.182755817277054E+00
   6.260525311712245E+00   6.339273025964528E+00   6.419011264524480E+00
   6.499752486654082E+00   6.581509308333586E+00   6.664294504232689E+00
   6.748121009706691E+00   6.833001922817631E+00   6.918950506380849E+00
   7.005980190037415E+00   7.094104572352441E+00   7.183337422939964E+00
   7.273692684614447E+00   7.365184475569332E+00   7.457827091583121E+00
   7.551635008253024E+00   7.646622883256887E+00   7.742805558643448E+00
   7.840198063151393E+00   7.938815614557727E+00   8.038673622055468E+00
   8.139787688661462E+00   8.242173613654352E+00   8.345847395043192E+00
   8.450825232067281E+00   8.557123527727205E+00   8.664758891347937E+00
   8.773748141174048E+00   8.884108306997529E+00   8.995856632818855E+00
   9.109010579541255E+00   9.223587827699134E+00   9.339606280220643E+00
   9.457084065224995E+00   9.576039538855143E+00   9.696491288145825E+00
   9.818458133927944E+00   9.941959133769315E+00   1.006701358495239E+01
   1.019364102748963E+01   1.032186124717653E+01   1.045169427868328E+01
   1.058316040868524E+01   1.071628017903264E+01   1.085107438996047E+01
   1.098756410333840E+01   1.112577064596185E+01   1.126571561288430E+01
   1.140742087079153E+01   1.155090856141841E+01   1.169620110500851E+01
   1.184332120381736E+01   1.199229184565976E+01   1.214313630750152E+01
   1.229587815909676E+01   1.245054126667050E+01   1.260714979664797E+01
   1.276572821943064E+01   1.292630131321965E+01   1.308889416788763E+01
   1.325353218889889E+01   1.342024110127918E+01   1.358904695363527E+01
   1.375997612222497E+01   1.393305531507867E+01   1.410831157617236E+01
   1.428577228965340E+01   1.446546518411936E+01   1.464741833695053E+01
   1.483166017869728E+01   1.501821949752217E+01   1.520712544369835E+01
   1.539840753416427E+01   1.559209565713569E+01   1.578822007677592E+01
   1.598681143792451E+01   1.618790077088569E+01   1.639151949627689E+01
   1.659769942993816E+01   1.680647278790367E+01   1.701787219143529E+01
   1.723193067211996E+01   1.744868167703081E+01   1.766815907395329E+01
   1.789039715667725E+01   1.811543065035520E+01   1.834329471692840E+01
   1.857402496062088E+01   1.880765743350257E+01   1.904422864112275E+01
   1.928377554821386E+01   1.952633558446753E+01   1.977194665038294E+01
   2.002064712318878E+01   2.027247586283997E+01   2.052747221808937E+01
   2.078567603263631E+01   2.104712765135217E+01   2.131186792658423E+01
   2.157993822453920E+01   2.185138043174643E+01   2.212623696160311E+01
   2.240455076100125E+01   2.268636531703817E+01   2.297172466381168E+01
   2.326067338930022E+01   2.355325664233004E+01   2.384952013962974E+01
   2.414951017297344E+01   2.445327361641427E+01   2.476085793360819E+01
   2.507231118523059E+01   2.538768203648575E+01   2.570701976471070E+01
   2.603037426707527E+01   2.635779606837824E+01   2.668933632894224E+01
   2.702504685260756E+01   2.736498009482644E+01   2.770918917085966E+01
   2.805772786407557E+01   2.841065063435413E+01   2.876801262659628E+01
   2.912986967934026E+01   2.949627833348687E+01   2.986729584113368E+01
   3.024298017452114E+01   3.062339003509076E+01   3.100858486265707E+01
   3.139862484469568E+01   3.179357092574723E+01   3.219348481694043E+01
   3.259842900563450E+01   3.300846676518266E+01   3.342366216481919E+01
   3.384408007966988E+01   3.426978620088933E+01   3.470084704592516E+01
   3.513732996891127E+01   3.557930317119254E+01   3.602683571198089E+01
   3.647999751914642E+01   3.693885940014350E+01   3.740349305307448E+01
   3.787397107789307E+01   3.835036698774771E+01   3.883275522046862E+01
   3.932121115019864E+01   3.981581109917044E+01   4.031663234963245E+01
   4.082375315592384E+01   4.133725275670242E+01   4.185721138732560E+01
   4.238371029238714E+01   4.291683173841226E+01   4.345665902671141E+01