<UPF version="2.0.1">
  <PP_INFO>
    Generated using "atomic" code by A. Dal Corso  v.7.0
    Author: ADC
    Generation date: 19Feb2023
    Pseudopotential type: USPP
    Element:  N
    Functional: PBE
    Suggested minimum cutoff for wavefunctions:  44. Ry
    Suggested minimum cutoff for charge density: 320. Ry
    The Pseudo was generated with a Scalar-Relativistic Calculation
    Local Potential by smoothing AE potential with Bessel fncs, cutoff radius:   1.2000
    Valence configuration: 
    nl pn  l   occ       Rcut    Rcut US       E pseu
    2S  1  0  2.00      1.000      1.300    -1.365820
    2P  2  1  3.00      0.900      1.350    -0.521109
    Generation configuration:
    2S  1  0  2.00      1.000      1.300    -1.365813
    2S  1  0  0.00      1.000      1.300     2.000000
    2P  2  1  3.00      0.900      1.350    -0.521105
    2P  2  1  0.00      0.900      1.350     0.050000
    Pseudization used: troullier-martins
    <PP_INPUTFILE>
@input
title='N',
zed=7.,
rel=1,
config='[He] 2s2 2p3',
iswitch=3,
dft='PBE'
/
@inputp
lpaw=.false.,
pseudotype=3,
file_pseudopw='N.pbe-n-rrkjus_psl.1.0.0.UPF',
author='ADC',
lloc=-1,
rcloc=1.2
which_augfun='PSQ',
rmatch_augfun_nc=.true.,
nlcc=.true.,
new_core_ps=.true.,
rcore=0.7,
tm=.true.
/
4
2S  1  0  2.00  0.00  1.00  1.30  0.0
2S  1  0  0.00  2.00  1.00  1.30  0.0
2P  2  1  3.00  0.00  0.90  1.35  0.0
2P  2  1  0.00  0.05  0.90  1.35  0.0
    </PP_INPUTFILE>
  </PP_INFO>
    <!-- END OF HUMAN READABLE SECTION -->
  <PP_HEADER generated="Generated using 'atomic' code by A. Dal Corso  v.7.0" author="ADC" date="19Feb2023" comment="" element=" N" pseudo_type="USPP" relativistic="scalar" is_ultrasoft="true" is_paw="false" is_coulomb="false" has_so="false" has_wfc="false" has_gipaw="false" paw_as_gipaw="false" core_correction="true" functional="PBE" z_valence="5.00000000000000" total_psenergy="-19.8482823001958" wfc_cutoff="43.9165170552273" rho_cutoff="320.270807985689" l_max="1" l_max_rho="2" l_local="-1" mesh_size="1085" number_of_wfc="2" number_of_proj="4"/>
  <PP_MESH mesh="1085" dx="1.250000000000000E-002" xmin="-7.00000000000000" rmax="100.000000000000" zmesh="7.00000000000000">
    <PP_R>
   1.302688522220738E-04   1.319074326670032E-04   1.335666239166546E-04
   1.352466852230363E-04   1.369478790991457E-04   1.386704713599870E-04
   1.404147311641055E-04   1.421809310556445E-04   1.439693470069301E-04
   1.457802584615935E-04   1.476139483782339E-04   1.494707032746312E-04
   1.513508132725157E-04   1.532545721428995E-04   1.551822773519797E-04
   1.571342301076169E-04   1.591107354064005E-04   1.611121020813046E-04
   1.631386428499439E-04   1.651906743634368E-04   1.672685172558821E-04
   1.693724961944590E-04   1.715029399301573E-04   1.736601813491449E-04
   1.758445575247830E-04   1.780564097702928E-04   1.802960836920878E-04
   1.825639292437749E-04   1.848603007808354E-04   1.871855571159943E-04
   1.895400615752845E-04   1.919241820548181E-04   1.943382910782705E-04
   1.967827658550881E-04   1.992579883394284E-04   2.017643452898402E-04
   2.043022283296963E-04   2.068720340083851E-04   2.094741638632718E-04
   2.121090244824410E-04   2.147770275682246E-04   2.174785900015331E-04
   2.202141339069929E-04   2.229840867189046E-04   2.257888812480310E-04
   2.286289557492235E-04   2.315047539899009E-04   2.344167253193894E-04
   2.373653247391334E-04   2.403510129737916E-04   2.433742565432248E-04
   2.464355278353917E-04   2.495353051801600E-04   2.526740729240458E-04
   2.558523215058957E-04   2.590705475335164E-04   2.623292538612724E-04
   2.656289496686573E-04   2.689701505398539E-04   2.723533785442966E-04
   2.757791623182442E-04   2.792480371473810E-04   2.827605450504567E-04
   2.863172348639770E-04   2.899186623279620E-04   2.935653901727799E-04
   2.972579882070756E-04   3.009970334068049E-04   3.047831100053869E-04
   3.086168095849935E-04   3.124987311689836E-04   3.164294813155024E-04
   3.204096742122576E-04   3.244399317724867E-04   3.285208837321337E-04
   3.326531677482448E-04   3.368374294986047E-04   3.410743227826248E-04
   3.453645096235005E-04   3.497086603716547E-04   3.541074538094798E-04
   3.585615772573998E-04   3.630717266812655E-04   3.676386068011000E-04
   3.722629312012141E-04   3.769454224417031E-04   3.816868121713501E-04
   3.864878412419467E-04   3.913492598240526E-04   3.962718275242126E-04
   4.012563135036447E-04   4.063034965984240E-04   4.114141654411776E-04
   4.165891185843097E-04   4.218291646247781E-04   4.271351223304372E-04
   4.325078207679736E-04   4.379480994324490E-04   4.434568083784727E-04
   4.490348083530257E-04   4.546829709299524E-04   4.604021786461466E-04
   4.661933251394498E-04   4.720573152882831E-04   4.779950653530388E-04
   4.840075031192445E-04   4.900955680425335E-04   4.962602113954362E-04
   5.025023964160183E-04   5.088230984583899E-04   5.152233051451044E-04
   5.217040165214777E-04   5.282662452118475E-04   5.349110165777972E-04
   5.416393688783725E-04   5.484523534323091E-04   5.553510347823044E-04
   5.623364908613548E-04   5.694098131611843E-04   5.765721069027940E-04
   5.838244912091524E-04   5.911680992800623E-04   5.986040785692256E-04
   6.061335909635343E-04   6.137578129646199E-04   6.214779358726813E-04
   6.292951659726294E-04   6.372107247225717E-04   6.452258489446667E-04
   6.533417910183819E-04   6.615598190761780E-04   6.698812172016587E-04
   6.783072856302111E-04   6.868393409521693E-04   6.954787163185376E-04
   7.042267616492931E-04   7.130848438443167E-04   7.220543469969734E-04
   7.311366726103788E-04   7.403332398163892E-04   7.496454855973406E-04
   7.590748650105823E-04   7.686228514158314E-04   7.782909367053893E-04
   7.880806315372531E-04   7.979934655711571E-04   8.080309877075869E-04
   8.181947663297979E-04   8.284863895488773E-04   8.389074654518931E-04
   8.494596223531563E-04   8.601445090486513E-04   8.709637950736626E-04
   8.819191709636430E-04   8.930123485183659E-04   9.042450610693924E-04
   9.156190637509119E-04   9.271361337739838E-04   9.387980707042304E-04
   9.506066967430248E-04   9.625638570122096E-04   9.746714198424039E-04
   9.869312770649332E-04   9.993453443074300E-04   1.011915561293161E-03
   1.024643892144100E-03   1.037532325687842E-03   1.050582875768348E-03
   1.063797581560620E-03   1.077178507889325E-03   1.090727745551423E-03
   1.104447411642867E-03   1.118339649889396E-03   1.132406630981499E-03
   1.146650552913594E-03   1.161073641327459E-03   1.175678149860004E-03
   1.190466360495401E-03   1.205440583921647E-03   1.220603159891621E-03
   1.235956457588662E-03   1.251502875996775E-03   1.267244844275466E-03
   1.283184822139302E-03   1.299325300242261E-03   1.315668800566877E-03
   1.332217876818332E-03   1.348975114823459E-03   1.365943132934786E-03
   1.383124582439670E-03   1.400522147974547E-03   1.418138547944430E-03
   1.435976534947655E-03   1.454038896205981E-03   1.472328454000107E-03
   1.490848066110644E-03   1.509600626264665E-03   1.528589064587847E-03
   1.547816348062307E-03   1.567285480990213E-03   1.586999505463187E-03
   1.606961501837666E-03   1.627174589216197E-03   1.647641925934803E-03
   1.668366710056493E-03   1.689352179870945E-03   1.710601614400517E-03
   1.732118333912586E-03   1.753905700438348E-03   1.775967118298156E-03
   1.798306034633428E-03   1.820925939945296E-03   1.843830368639982E-03
   1.867022899581069E-03   1.890507156648706E-03   1.914286809305832E-03
   1.938365573171562E-03   1.962747210601735E-03   1.987435531276803E-03
   2.012434392797105E-03   2.037747701285608E-03   2.063379411998269E-03
   2.089333529942032E-03   2.115614110500629E-03   2.142225260068245E-03
   2.169171136691135E-03   2.196455950717348E-03   2.224083965454584E-03
   2.252059497836355E-03   2.280386919096517E-03   2.309070655452268E-03
   2.338115188795775E-03   2.367525057394465E-03   2.397304856600137E-03
   2.427459239567012E-03   2.457992917978769E-03   2.488910662784788E-03
   2.520217304945595E-03   2.551917736187719E-03   2.584016909768044E-03
   2.616519841247740E-03   2.649431609275984E-03   2.682757356383487E-03
   2.716502289786037E-03   2.750671682198133E-03   2.785270872656856E-03
   2.820305267356112E-03   2.855780340491347E-03   2.891701635114913E-03
   2.928074764002180E-03   2.964905410528535E-03   3.002199329557433E-03
   3.039962348339597E-03   3.078200367423539E-03   3.116919361577539E-03
   3.156125380723206E-03   3.195824550880800E-03   3.236023075126424E-03
   3.276727234561276E-03   3.317943389293082E-03   3.359677979429872E-03
   3.401937526086269E-03   3.444728632402411E-03   3.488057984575719E-03
   3.531932352905629E-03   3.576358592851450E-03   3.621343646103563E-03
   3.666894541668062E-03   3.713018396965050E-03   3.759722418940759E-03
   3.807013905193641E-03   3.854900245114641E-03   3.903388921041796E-03
   3.952487509429369E-03   4.002203682031689E-03   4.052545207101872E-03
   4.103519950605633E-03   4.155135877450354E-03   4.207401052729613E-03
   4.260323642983387E-03   4.313911917474072E-03   4.368174249478585E-03
   4.423119117596699E-03   4.478755107075841E-03   4.535090911152564E-03
   4.592135332410867E-03   4.649897284157633E-03   4.708385791815338E-03
   4.767609994332297E-03   4.827579145610651E-03   4.888302615952291E-03
   4.949789893523003E-03   5.012050585835005E-03   5.075094421248138E-03
   5.138931250489953E-03   5.203571048194891E-03   5.269023914462859E-03
   5.335300076437374E-03   5.402409889903583E-03   5.470363840906380E-03
   5.539172547388858E-03   5.608846760851403E-03   5.679397368031617E-03
   5.750835392605408E-03   5.823171996909461E-03   5.896418483685364E-03
   5.970586297845702E-03   6.045687028262331E-03   6.121732409577169E-03
   6.198734324035768E-03   6.276704803343918E-03   6.355656030547646E-03
   6.435600341936832E-03   6.516550228972772E-03   6.598518340240017E-03
   6.681517483422711E-03   6.765560627305847E-03   6.850660903801639E-03
   6.936831610001424E-03   7.024086210253369E-03   7.112438338266277E-03
   7.201901799239911E-03   7.292490572022059E-03   7.384218811292773E-03
   7.477100849776055E-03   7.571151200479400E-03   7.666384558961447E-03
   7.762815805628214E-03   7.860460008058181E-03   7.959332423356629E-03
   8.059448500539622E-03   8.160823882947898E-03   8.263474410691212E-03
   8.367416123123365E-03   8.472665261348388E-03   8.579238270758278E-03
   8.687151803602567E-03   8.796422721590319E-03   8.907068098524779E-03
   9.019105222971197E-03   9.132551600958225E-03   9.247424958713222E-03
   9.363743245432052E-03   9.481524636083663E-03   9.600787534249965E-03
   9.721550575001457E-03   9.843832627808941E-03   9.967652799491952E-03
   1.009303043720423E-02   1.021998513145675E-02   1.034853671917878E-02
   1.047870528681745E-02   1.061051117347627E-02   1.074397497409320E-02
   1.087911754265862E-02   1.101595999547382E-02   1.115452371445045E-02
   1.129483035045153E-02   1.143690182667437E-02   1.158076034207618E-02
   1.172642837484269E-02   1.187392868590037E-02   1.202328432247292E-02
   1.217451862168241E-02   1.232765521419578E-02   1.248271802791720E-02
   1.263973129172676E-02   1.279871953926639E-02   1.295970761277322E-02
   1.312272066696127E-02   1.328778417295193E-02   1.345492392225381E-02
   1.362416603079281E-02   1.379553694299269E-02   1.396906343590715E-02
   1.414477262340376E-02   1.432269196040054E-02   1.450284924715587E-02
   1.468527263361235E-02   1.486999062379524E-02   1.505703208026633E-02
   1.524642622863374E-02   1.543820266211847E-02   1.563239134617843E-02
   1.582902262319057E-02   1.602812721719196E-02   1.622973623868054E-02
   1.643388118947606E-02   1.664059396764243E-02   1.684990687247180E-02
   1.706185260953138E-02   1.727646429577381E-02   1.749377546471171E-02
   1.771382007165733E-02   1.793663249902819E-02   1.816224756171937E-02
   1.839070051254346E-02   1.862202704773882E-02   1.885626331254718E-02
   1.909344590686150E-02   1.933361189094467E-02   1.957679879122035E-02
   1.982304460613647E-02   2.007238781210260E-02   2.032486736950195E-02
   2.058052272877904E-02   2.083939383660392E-02   2.110152114211384E-02
   2.136694560323359E-02   2.163570869307524E-02   2.190785240641835E-02
   2.218341926627186E-02   2.246245233051824E-02   2.274499519864148E-02
   2.303109201853955E-02   2.332078749342263E-02   2.361412688879808E-02
   2.391115603954322E-02   2.421192135706717E-02   2.451646983656269E-02
   2.482484906434931E-02   2.513710722530879E-02   2.545329311041407E-02
   2.577345612435298E-02   2.609764629324782E-02   2.642591427247204E-02
   2.675831135456529E-02   2.709488947724790E-02   2.743570123153632E-02
   2.778079986996052E-02   2.813023931488487E-02   2.848407416693360E-02
   2.884235971352221E-02   2.920515193749630E-02   2.957250752587897E-02
   2.994448387872826E-02   3.032113911810616E-02   3.070253209716009E-02
   3.108872240931900E-02   3.147977039760486E-02   3.187573716406140E-02
   3.227668457930156E-02   3.268267529217465E-02   3.309377273955556E-02
   3.351004115625683E-02   3.393154558506545E-02   3.435835188690602E-02
   3.479052675113154E-02   3.522813770594380E-02   3.567125312894482E-02
   3.611994225782093E-02   3.657427520116144E-02   3.703432294941309E-02
   3.750015738597249E-02   3.797185129841811E-02   3.844947838988341E-02
   3.893311329057324E-02   3.942283156942474E-02   3.991870974591535E-02
   4.042082530201901E-02   4.092925669431287E-02   4.144408336623649E-02
   4.196538576050470E-02   4.249324533167725E-02   4.302774455888604E-02
   4.356896695872275E-02   4.411699709828856E-02   4.467192060840770E-02
   4.523382419700762E-02   4.580279566266727E-02   4.637892390833568E-02
   4.696229895522346E-02   4.755301195686852E-02   4.815115521337921E-02
   4.875682218585627E-02   4.937010751099636E-02   4.999110701587935E-02
   5.061991773294126E-02   5.125663791513597E-02   5.190136705128735E-02
   5.255420588163462E-02   5.321525641357329E-02   5.388462193759386E-02
   5.456240704342130E-02   5.524871763635736E-02   5.594366095382843E-02
   5.664734558214185E-02   5.735988147345240E-02   5.808137996294276E-02
   5.881195378621983E-02   5.955171709692977E-02   6.030078548459507E-02
   6.105927599267526E-02   6.182730713685536E-02   6.260499892356422E-02
   6.339247286872569E-02   6.418985201674596E-02   6.499726095973909E-02
   6.581482585699515E-02   6.664267445469267E-02   6.748093610585924E-02
   6.832974179058345E-02   6.918922413648038E-02   7.005951743941520E-02
   7.094075768448713E-02   7.183308256727727E-02   7.273663151536418E-02
   7.365154571010919E-02   7.457796810871663E-02   7.551604346657111E-02
   7.646591835985575E-02   7.742774120845532E-02   7.840166229914666E-02
   7.938783380908167E-02   8.038640982956516E-02   8.139754639013186E-02
   8.242140148292668E-02   8.345813508739086E-02   8.450790919525934E-02
   8.557088783587226E-02   8.664723710180477E-02   8.773712517481970E-02
   8.884072235214577E-02   8.995820107308719E-02   9.108973594596768E-02
   9.223550377541315E-02   9.339568358997820E-02   9.457045667011918E-02
   9.576000657651995E-02   9.696451917877355E-02   9.818418268442461E-02
   9.941918766837744E-02   1.006697271026734E-01   1.019359963866433E-01
   1.032181933774390E-01   1.045165184209488E-01   1.058311743831026E-01
   1.071623666815689E-01   1.085103033178527E-01   1.098751949097959E-01
   1.112572547244864E-01   1.126566987115824E-01   1.140737455370539E-01
   1.155086166173504E-01   1.169615361539975E-01   1.184327311686286E-01
   1.199224315384582E-01   1.214308700321998E-01   1.229582823464369E-01
   1.245049071424512E-01   1.260709860835136E-01   1.276567638726451E-01
   1.292624882908514E-01   1.308884102358397E-01   1.325347837612219E-01
   1.342018661162108E-01   1.358899177858163E-01   1.375992025315460E-01
   1.393299874326190E-01   1.410825429276975E-01   1.428571428571428E-01
   1.446540645058050E-01   1.464735886463470E-01   1.483159995831179E-01
   1.501815851965750E-01   1.520706369882656E-01   1.539834501263760E-01
   1.559203234918503E-01   1.578815597250926E-01   1.598674652732545E-01
   1.618783504381180E-01   1.639145294245818E-01   1.659763203897548E-01
   1.680640454926701E-01   1.701780309446227E-01   1.723186070601401E-01
   1.744861083085957E-01   1.766808733664693E-01   1.789032451702664E-01
   1.811535709701029E-01   1.834322023839630E-01   1.857394954526416E-01
   1.880758106953746E-01   1.904415131661719E-01   1.928369725108577E-01
   1.952625630248281E-01   1.977186637115360E-01   2.002056583417105E-01
   2.027239355133226E-01   2.052738887123036E-01   2.078559163740288E-01
   2.104704219455737E-01   2.131178139487530E-01   2.157985060439533E-01
   2.185129170947686E-01   2.212614712334476E-01   2.240445979271670E-01
   2.268627320451349E-01   2.297163139265405E-01   2.326057894493587E-01
   2.355316101000183E-01   2.384942330439490E-01   2.414941211970131E-01
   2.445317432978379E-01   2.476075739810566E-01   2.507220938514712E-01
   2.538757895591484E-01   2.570691538754585E-01   2.603026857700729E-01
   2.635768904889287E-01   2.668922796331746E-01   2.702493712391100E-01
   2.736486898591281E-01   2.770907666436793E-01   2.805761394242641E-01
   2.841053527974703E-01   2.876789582100682E-01   2.912975140451737E-01
   2.949615857094982E-01   2.986717457216939E-01   3.024285738018107E-01
   3.062326569618800E-01   3.100845895976347E-01   3.139849735813862E-01
   3.179344183560670E-01   3.219335410304583E-01   3.259829664756149E-01
   3.300833274225007E-01   3.342352645608560E-01   3.384394266393059E-01
   3.426964705667283E-01   3.470070615148984E-01   3.513718730224215E-01
   3.557915870999760E-01   3.602668943368785E-01   3.647984940089896E-01
   3.693870941879781E-01   3.740334118519574E-01   3.787381729975154E-01
   3.835021127531532E-01   3.883259754941493E-01   3.932105149588724E-01
   3.981564943665502E-01   4.031646865365285E-01   4.082358740090237E-01
   4.133708491673945E-01   4.185704143619579E-01   4.238353820353526E-01
   4.291665748494903E-01   4.345648258140951E-01   4.400309784168616E-01
   4.455658867552565E-01   4.511704156699670E-01   4.568454408800392E-01
   4.625918491197090E-01   4.684105382769533E-01   4.743024175337930E-01
   4.802684075083472E-01   4.863094403986882E-01   4.924264601284967E-01
   4.986204224945488E-01   5.048922953160676E-01   5.112430585859401E-01
   5.176737046238487E-01   5.241852382313209E-01   5.307786768487291E-01
   5.374550507142735E-01   5.442154030249517E-01   5.510607900995675E-01
   5.579922815437792E-01   5.650109604172253E-01   5.721179234027612E-01
   5.793142809778109E-01   5.866011575878873E-01   5.939796918222873E-01
   6.014510365919943E-01   6.090163593098318E-01   6.166768420728636E-01
   6.244336818471081E-01   6.322880906545626E-01   6.402412957625806E-01
   6.482945398756439E-01   6.564490813295272E-01   6.647061942879241E-01
   6.730671689415350E-01   6.815333117096575E-01   6.901059454443262E-01
   6.987864096370009E-01   7.075760606278733E-01   7.164762718177947E-01
   7.254884338828688E-01   7.346139549917560E-01   7.438542610256930E-01
   7.532107958012986E-01   7.626850212961686E-01   7.722784178773096E-01
   7.819924845324578E-01   7.918287391042892E-01   8.017887185275935E-01
   8.118739790694212E-01   8.220860965722473E-01   8.324266667002114E-01
   8.428973051884311E-01   8.534996480954745E-01   8.642353520589928E-01
   8.751060945545694E-01   8.861135741578388E-01   8.972595108098809E-01
   9.085456460859757E-01   9.199737434677234E-01   9.315455886185875E-01
   9.432629896629192E-01   9.551277774684674E-01   9.671418059324676E-01
   9.793069522713118E-01   9.916251173138623E-01   1.004098225798472E+00
   1.016728226673714E+00   1.029517093402924E+00   1.042466824272548E+00
   1.055579442704379E+00   1.068856997571727E+00   1.082301563519550E+00
   1.095915241288633E+00   1.109700158043825E+00   1.123658467706413E+00
   1.137792351290683E+00   1.152104017244696E+00   1.166595701795378E+00
   1.181269669297925E+00   1.196128212589609E+00   1.211173653348055E+00
   1.226408342453985E+00   1.241834660358572E+00   1.257455017455373E+00
   1.273271854456963E+00   1.289287642776304E+00   1.305504884912904E+00
   1.321926114843841E+00   1.338553898419705E+00   1.355390833765504E+00
   1.372439551686645E+00   1.389702716079984E+00   1.407183024350083E+00
   1.424883207830675E+00   1.442806032211436E+00   1.460954297970144E+00
   1.479330840810242E+00   1.497938532103939E+00   1.516780279340859E+00
   1.535859026582336E+00   1.555177754921450E+00   1.574739482948801E+00
   1.594547267224195E+00   1.614604202754227E+00   1.634913423475874E+00
   1.655478102746200E+00   1.676301453838173E+00   1.697386730442771E+00
   1.718737227177363E+00   1.740356280100496E+00   1.762247267233181E+00
   1.784413609086688E+00   1.806858769197032E+00   1.829586254666149E+00
   1.852599616709876E+00   1.875902451212861E+00   1.899498399290398E+00
   1.923391147857387E+00   1.947584430204395E+00   1.972082026581014E+00
   1.996887764786521E+00   2.022005520767972E+00   2.047439219225850E+00
   2.073192834227275E+00   2.099270389826992E+00   2.125675960696122E+00
   2.152413672758827E+00   2.179487703837026E+00   2.206902284303147E+00
   2.234661697741168E+00   2.262770281615919E+00   2.291232427950811E+00
   2.320052584014122E+00   2.349235253013866E+00   2.378784994801449E+00
   2.408706426584150E+00   2.439004223646552E+00   2.469683120081095E+00
   2.500747909527756E+00   2.532203445923092E+00   2.564054644258665E+00
   2.596306481349010E+00   2.628963996609296E+00   2.662032292842717E+00
   2.695516537037840E+00   2.729421961175952E+00   2.763753863048545E+00
   2.798517607085146E+00   2.833718625191476E+00   2.869362417598238E+00
   2.905454553720518E+00   2.942000673028005E+00   2.979006485926205E+00
   3.016477774648661E+00   3.054420394160478E+00   3.092840273073154E+00
   3.131743414570924E+00   3.171135897348809E+00   3.211023876562375E+00
   3.251413584789533E+00   3.292311333004371E+00   3.333723511563246E+00
   3.375656591203321E+00   3.418117124053593E+00   3.461111744658711E+00
   3.504647171015625E+00   3.548730205623264E+00   3.593367736545485E+00
   3.638566738487299E+00   3.684334273884723E+00   3.730677494008285E+00
   3.777603640080400E+00   3.825120044406880E+00   3.873234131522558E+00
   3.921953419351443E+00   3.971285520381385E+00   4.021238142853522E+00
   4.071819091966760E+00   4.123036271097290E+00   4.174897683033563E+00
   4.227411431226711E+00   4.280585721056718E+00   4.334428861114565E+00
   4.388949264500419E+00   4.444155450138237E+00   4.500056044106852E+00
   4.556659780987785E+00   4.613975505230103E+00   4.672012172532311E+00
   4.730778851241759E+00   4.790284723771566E+00   4.850539088035364E+00
   4.911551358900176E+00   4.973331069657435E+00   5.035887873512649E+00
   5.099231545093701E+00   5.163371981978133E+00   5.228319206239719E+00
   5.294083366014370E+00   5.360674737085858E+00   5.428103724491400E+00
   5.496380864147448E+00   5.565516824496003E+00   5.635522408171508E+00
   5.706408553688847E+00   5.778186337152491E+00   5.850866973987115E+00
   5.924461820690117E+00   5.998982376606001E+00   6.074440285723255E+00
   6.150847338493709E+00   6.228215473674787E+00   6.306556780195041E+00
   6.385883499042980E+00   6.466208025179824E+00   6.547542909476215E+00
   6.629900860673282E+00   6.713294747368479E+00   6.797737600026243E+00
   6.883242613014117E+00   6.969823146664352E+00   7.057492729361456E+00
   7.146265059656116E+00   7.236154008405523E+00   7.327173620940814E+00
   7.419338119261641E+00   7.512661904258350E+00   7.607159557962242E+00
   7.702845845823938E+00   7.799735719020605E+00   7.897844316792069E+00
   7.997186968806308E+00   8.097779197554839E+00   8.199636720778035E+00
   8.302775453921141E+00   8.407211512621066E+00   8.512961215224427E+00
   8.620041085337437E+00   8.728467854407624E+00   8.838258464338269E+00
   8.949430070135559E+00   9.062000042589050E+00   9.175985970985993E+00
   9.291405665859573E+00   9.408277161771958E+00   9.526618720132173E+00
   9.646448832049449E+00   9.767786221222604E+00   9.890649846865520E+00
   1.001505890666969E+01   1.014103283980385E+01   1.026859132995130E+01
   1.039775430838568E+01   1.052854195708512E+01   1.066097471188584E+01
   1.079507326567524E+01   1.093085857162513E+01   1.106835184646585E+01
   1.120757457380131E+01   1.134854850746590E+01   1.149129567492362E+01
   1.163583838070973E+01   1.178219920991616E+01   1.193040103172018E+01
   1.208046700295800E+01   1.223242057174295E+01   1.238628548112927E+01
   1.254208577282213E+01   1.269984579093405E+01   1.285959018578883E+01
   1.302134391777321E+01   1.318513226123684E+01   1.335098080844168E+01
   1.351891547356059E+01   1.368896249672670E+01   1.386114844813335E+01
   1.403550023218572E+01   1.421204509170485E+01   1.439081061218416E+01
   1.457182472609996E+01   1.475511571727584E+01   1.494071222530203E+01
   1.512864325001057E+01   1.531893815600637E+01   1.551162667725566E+01
   1.570673892173194E+01   1.590430537612034E+01   1.610435691058133E+01
   1.630692478357415E+01   1.651204064674110E+01   1.671973654985313E+01
   1.693004494581762E+01   1.714299869574937E+01   1.735863107410499E+01
   1.757697577388236E+01   1.779806691188507E+01   1.802193903405317E+01
   1.824862712086129E+01   1.847816659278414E+01   1.871059331583123E+01
   1.894594360715095E+01   1.918425424070508E+01   1.942556245301502E+01
   1.966990594897982E+01   1.991732290776788E+01   2.016785198878243E+01
   2.042153233770200E+01   2.067840359259731E+01   2.093850589012445E+01
   2.120187987179666E+01   2.146856669033443E+01   2.173860801609566E+01
   2.201204604358699E+01   2.228892349805644E+01   2.256928364216964E+01
   2.285317028276953E+01   2.314062777772119E+01   2.343170104284314E+01
   2.372643555892516E+01   2.402487737883506E+01   2.432707313471445E+01
   2.463307004526490E+01   2.494291592312635E+01   2.525665918234749E+01
   2.557434884595095E+01   2.589603455359305E+01   2.622176656932000E+01
   2.655159578942204E+01   2.688557375038578E+01   2.722375263694714E+01
   2.756618529024523E+01   2.791292521607871E+01   2.826402659326653E+01
   2.861954428211312E+01   2.897953383298070E+01   2.934405149496905E+01
   2.971315422470438E+01   3.008689969523925E+01   3.046534630506372E+01
   3.084855318723059E+01   3.123658021859488E+01   3.162948802916960E+01
   3.202733801159961E+01   3.243019233075402E+01   3.283811393343984E+01
   3.325116655823747E+01   3.366941474545980E+01   3.409292384723712E+01
   3.452176003772811E+01   3.495599032346006E+01   3.539568255379861E+01
   3.584090543154922E+01   3.629172852369247E+01   3.674822227225356E+01
   3.721045800530954E+01   3.767850794813418E+01   3.815244523448316E+01
   3.863234391802185E+01   3.911827898389579E+01   3.961032636044771E+01
   4.010856293108136E+01   4.061306654627442E+01   4.112391603574333E+01
   4.164119122076003E+01   4.216497292662461E+01   4.269534299529437E+01
   4.323238429817140E+01   4.377618074905208E+01   4.432681731723806E+01
   4.488438004081346E+01   4.544895604008830E+01   4.602063353121093E+01
   4.659950183995262E+01   4.718565141566413E+01   4.777917384540929E+01
   4.838016186827537E+01   4.898870938986348E+01   4.960491149696215E+01
   5.022886447240411E+01   5.086066581011130E+01   5.150041423032825E+01
   5.214820969504699E+01   5.280415342362704E+01   5.346834790861031E+01
   5.414089693173651E+01   5.482190558015889E+01   5.551148026286411E+01
   5.620972872729949E+01   5.691676007620799E+01   5.763268478467644E+01
   5.835761471739722E+01   5.909166314614697E+01   5.983494476748633E+01
   6.058757572068065E+01   6.134967360584771E+01   6.212135750233266E+01
   6.290274798731413E+01   6.369396715464536E+01   6.449513863393079E+01
   6.530638760984414E+01   6.612784084168851E+01   6.695962668320243E+01
   6.780187510261614E+01   6.865471770295848E+01   6.951828774262103E+01
   7.039272015617954E+01   7.127815157547744E+01   7.217472035097565E+01
   7.308256657336918E+01   7.400183209547743E+01   7.493266055440863E+01
   7.587519739400302E+01   7.682958988755964E+01   7.779598716084706E+01
   7.877454021540554E+01   7.976540195214086E+01   8.076872719521502E+01
   8.178467271623883E+01   8.281339725876663E+01   8.385506156310126E+01
   8.490982839140975E+01   8.597786255315461E+01   8.705933093084687E+01
   8.815440250612052E+01   8.926324838613728E+01   9.038604183032201E+01
   9.152295827743441E+01   9.267417537298272E+01   9.383987299697996E+01
   9.502023329205169E+01   9.621544069189564E+01   9.742568195009936E+01
   9.865114616932205E+01   9.989202483084082E+01
    </PP_R>
    <PP_RAB>
   1.628360652775922E-06   1.648842908337540E-06   1.669582798958182E-06
   1.690583565287953E-06   1.711848488739321E-06   1.733380891999837E-06
   1.755184139551319E-06   1.777261638195556E-06   1.799616837586626E-06
   1.822253230769919E-06   1.845174354727923E-06   1.868383790932890E-06
   1.891885165906447E-06   1.915682151786244E-06   1.939778466899746E-06
   1.964177876345211E-06   1.988884192580006E-06   2.013901276016308E-06
   2.039233035624299E-06   2.064883429542960E-06   2.090856465698526E-06
   2.117156202430737E-06   2.143786749126966E-06   2.170752266864312E-06
   2.198056969059788E-06   2.225705122128660E-06   2.253701046151097E-06
   2.282049115547187E-06   2.310753759760443E-06   2.339819463949929E-06
   2.369250769691056E-06   2.399052275685227E-06   2.429228638478382E-06
   2.459784573188602E-06   2.490724854242855E-06   2.522054316123003E-06
   2.553777854121204E-06   2.585900425104814E-06   2.618427048290898E-06
   2.651362806030512E-06   2.684712844602808E-06   2.718482375019164E-06
   2.752676673837411E-06   2.787301083986308E-06   2.822361015600388E-06
   2.857861946865294E-06   2.893809424873762E-06   2.930209066492368E-06
   2.967066559239168E-06   3.004387662172395E-06   3.042178206790311E-06
   3.080444097942397E-06   3.119191314751999E-06   3.158425911550573E-06
   3.198154018823696E-06   3.238381844168956E-06   3.279115673265906E-06